# vtk DataFile Version 2.0
title
ASCII
DATASET STRUCTURED_GRID
DIMENSIONS  100  100    1
POINTS  10000  float
  0.000000E+00  0.000000E+00  0.000000E+00
  0.000000E+00  2.500000E-01  0.000000E+00
  0.000000E+00  5.000000E-01  0.000000E+00
  0.000000E+00  7.500000E-01  0.000000E+00
  0.000000E+00  1.000000E+00  0.000000E+00
  0.000000E+00  1.250000E+00  0.000000E+00
  0.000000E+00  1.500000E+00  0.000000E+00
  0.000000E+00  1.750000E+00  0.000000E+00
  0.000000E+00  2.000000E+00  0.000000E+00
  0.000000E+00  2.250000E+00  0.000000E+00
  0.000000E+00  2.500000E+00  0.000000E+00
  0.000000E+00  2.750000E+00  0.000000E+00
  0.000000E+00  3.000000E+00  0.000000E+00
  0.000000E+00  3.250000E+00  0.000000E+00
  0.000000E+00  3.500000E+00  0.000000E+00
  0.000000E+00  3.750000E+00  0.000000E+00
  0.000000E+00  4.000000E+00  0.000000E+00
  0.000000E+00  4.250000E+00  0.000000E+00
  0.000000E+00  4.500000E+00  0.000000E+00
  0.000000E+00  4.750000E+00  0.000000E+00
  0.000000E+00  5.000000E+00  0.000000E+00
  0.000000E+00  5.250000E+00  0.000000E+00
  0.000000E+00  5.500000E+00  0.000000E+00
  0.000000E+00  5.750000E+00  0.000000E+00
  0.000000E+00  6.000000E+00  0.000000E+00
  0.000000E+00  6.250000E+00  0.000000E+00
  0.000000E+00  6.500000E+00  0.000000E+00
  0.000000E+00  6.750000E+00  0.000000E+00
  0.000000E+00  7.000000E+00  0.000000E+00
  0.000000E+00  7.250000E+00  0.000000E+00
  0.000000E+00  7.500000E+00  0.000000E+00
  0.000000E+00  7.750000E+00  0.000000E+00
  0.000000E+00  8.000000E+00  0.000000E+00
  0.000000E+00  8.250000E+00  0.000000E+00
  0.000000E+00  8.500000E+00  0.000000E+00
  0.000000E+00  8.750000E+00  0.000000E+00
  0.000000E+00  9.000000E+00  0.000000E+00
  0.000000E+00  9.250000E+00  0.000000E+00
  0.000000E+00  9.500000E+00  0.000000E+00
  0.000000E+00  9.750000E+00  0.000000E+00
  0.000000E+00  1.000000E+01  0.000000E+00
  0.000000E+00  1.025000E+01  0.000000E+00
  0.000000E+00  1.050000E+01  0.000000E+00
  0.000000E+00  1.075000E+01  0.000000E+00
  0.000000E+00  1.100000E+01  0.000000E+00
  0.000000E+00  1.125000E+01  0.000000E+00
  0.000000E+00  1.150000E+01  0.000000E+00
  0.000000E+00  1.175000E+01  0.000000E+00
  0.000000E+00  1.200000E+01  0.000000E+00
  0.000000E+00  1.225000E+01  0.000000E+00
  0.000000E+00  1.250000E+01  0.000000E+00
  0.000000E+00  1.275000E+01  0.000000E+00
  0.000000E+00  1.300000E+01  0.000000E+00
  0.000000E+00  1.325000E+01  0.000000E+00
  0.000000E+00  1.350000E+01  0.000000E+00
  0.000000E+00  1.375000E+01  0.000000E+00
  0.000000E+00  1.400000E+01  0.000000E+00
  0.000000E+00  1.425000E+01  0.000000E+00
  0.000000E+00  1.450000E+01  0.000000E+00
  0.000000E+00  1.475000E+01  0.000000E+00
  0.000000E+00  1.500000E+01  0.000000E+00
  0.000000E+00  1.525000E+01  0.000000E+00
  0.000000E+00  1.550000E+01  0.000000E+00
  0.000000E+00  1.575000E+01  0.000000E+00
  0.000000E+00  1.600000E+01  0.000000E+00
  0.000000E+00  1.625000E+01  0.000000E+00
  0.000000E+00  1.650000E+01  0.000000E+00
  0.000000E+00  1.675000E+01  0.000000E+00
  0.000000E+00  1.700000E+01  0.000000E+00
  0.000000E+00  1.725000E+01  0.000000E+00
  0.000000E+00  1.750000E+01  0.000000E+00
  0.000000E+00  1.775000E+01  0.000000E+00
  0.000000E+00  1.800000E+01  0.000000E+00
  0.000000E+00  1.825000E+01  0.000000E+00
  0.000000E+00  1.850000E+01  0.000000E+00
  0.000000E+00  1.875000E+01  0.000000E+00
  0.000000E+00  1.900000E+01  0.000000E+00
  0.000000E+00  1.925000E+01  0.000000E+00
  0.000000E+00  1.950000E+01  0.000000E+00
  0.000000E+00  1.975000E+01  0.000000E+00
  0.000000E+00  2.000000E+01  0.000000E+00
  0.000000E+00  2.025000E+01  0.000000E+00
  0.000000E+00  2.050000E+01  0.000000E+00
  0.000000E+00  2.075000E+01  0.000000E+00
  0.000000E+00  2.100000E+01  0.000000E+00
  0.000000E+00  2.125000E+01  0.000000E+00
  0.000000E+00  2.150000E+01  0.000000E+00
  0.000000E+00  2.175000E+01  0.000000E+00
  0.000000E+00  2.200000E+01  0.000000E+00
  0.000000E+00  2.225000E+01  0.000000E+00
  0.000000E+00  2.250000E+01  0.000000E+00
  0.000000E+00  2.275000E+01  0.000000E+00
  0.000000E+00  2.300000E+01  0.000000E+00
  0.000000E+00  2.325000E+01  0.000000E+00
  0.000000E+00  2.350000E+01  0.000000E+00
  0.000000E+00  2.375000E+01  0.000000E+00
  0.000000E+00  2.400000E+01  0.000000E+00
  0.000000E+00  2.425000E+01  0.000000E+00
  0.000000E+00  2.450000E+01  0.000000E+00
  0.000000E+00  2.475000E+01  0.000000E+00
  2.500000E-01  0.000000E+00  0.000000E+00
  2.500000E-01  2.500000E-01  0.000000E+00
  2.500000E-01  5.000000E-01  0.000000E+00
  2.500000E-01  7.500000E-01  0.000000E+00
  2.500000E-01  1.000000E+00  0.000000E+00
  2.500000E-01  1.250000E+00  0.000000E+00
  2.500000E-01  1.500000E+00  0.000000E+00
  2.500000E-01  1.750000E+00  0.000000E+00
  2.500000E-01  2.000000E+00  0.000000E+00
  2.500000E-01  2.250000E+00  0.000000E+00
  2.500000E-01  2.500000E+00  0.000000E+00
  2.500000E-01  2.750000E+00  0.000000E+00
  2.500000E-01  3.000000E+00  0.000000E+00
  2.500000E-01  3.250000E+00  0.000000E+00
  2.500000E-01  3.500000E+00  0.000000E+00
  2.500000E-01  3.750000E+00  0.000000E+00
  2.500000E-01  4.000000E+00  0.000000E+00
  2.500000E-01  4.250000E+00  0.000000E+00
  2.500000E-01  4.500000E+00  0.000000E+00
  2.500000E-01  4.750000E+00  0.000000E+00
  2.500000E-01  5.000000E+00  0.000000E+00
  2.500000E-01  5.250000E+00  0.000000E+00
  2.500000E-01  5.500000E+00  0.000000E+00
  2.500000E-01  5.750000E+00  0.000000E+00
  2.500000E-01  6.000000E+00  0.000000E+00
  2.500000E-01  6.250000E+00  0.000000E+00
  2.500000E-01  6.500000E+00  0.000000E+00
  2.500000E-01  6.750000E+00  0.000000E+00
  2.500000E-01  7.000000E+00  0.000000E+00
  2.500000E-01  7.250000E+00  0.000000E+00
  2.500000E-01  7.500000E+00  0.000000E+00
  2.500000E-01  7.750000E+00  0.000000E+00
  2.500000E-01  8.000000E+00  0.000000E+00
  2.500000E-01  8.250000E+00  0.000000E+00
  2.500000E-01  8.500000E+00  0.000000E+00
  2.500000E-01  8.750000E+00  0.000000E+00
  2.500000E-01  9.000000E+00  0.000000E+00
  2.500000E-01  9.250000E+00  0.000000E+00
  2.500000E-01  9.500000E+00  0.000000E+00
  2.500000E-01  9.750000E+00  0.000000E+00
  2.500000E-01  1.000000E+01  0.000000E+00
  2.500000E-01  1.025000E+01  0.000000E+00
  2.500000E-01  1.050000E+01  0.000000E+00
  2.500000E-01  1.075000E+01  0.000000E+00
  2.500000E-01  1.100000E+01  0.000000E+00
  2.500000E-01  1.125000E+01  0.000000E+00
  2.500000E-01  1.150000E+01  0.000000E+00
  2.500000E-01  1.175000E+01  0.000000E+00
  2.500000E-01  1.200000E+01  0.000000E+00
  2.500000E-01  1.225000E+01  0.000000E+00
  2.500000E-01  1.250000E+01  0.000000E+00
  2.500000E-01  1.275000E+01  0.000000E+00
  2.500000E-01  1.300000E+01  0.000000E+00
  2.500000E-01  1.325000E+01  0.000000E+00
  2.500000E-01  1.350000E+01  0.000000E+00
  2.500000E-01  1.375000E+01  0.000000E+00
  2.500000E-01  1.400000E+01  0.000000E+00
  2.500000E-01  1.425000E+01  0.000000E+00
  2.500000E-01  1.450000E+01  0.000000E+00
  2.500000E-01  1.475000E+01  0.000000E+00
  2.500000E-01  1.500000E+01  0.000000E+00
  2.500000E-01  1.525000E+01  0.000000E+00
  2.500000E-01  1.550000E+01  0.000000E+00
  2.500000E-01  1.575000E+01  0.000000E+00
  2.500000E-01  1.600000E+01  0.000000E+00
  2.500000E-01  1.625000E+01  0.000000E+00
  2.500000E-01  1.650000E+01  0.000000E+00
  2.500000E-01  1.675000E+01  0.000000E+00
  2.500000E-01  1.700000E+01  0.000000E+00
  2.500000E-01  1.725000E+01  0.000000E+00
  2.500000E-01  1.750000E+01  0.000000E+00
  2.500000E-01  1.775000E+01  0.000000E+00
  2.500000E-01  1.800000E+01  0.000000E+00
  2.500000E-01  1.825000E+01  0.000000E+00
  2.500000E-01  1.850000E+01  0.000000E+00
  2.500000E-01  1.875000E+01  0.000000E+00
  2.500000E-01  1.900000E+01  0.000000E+00
  2.500000E-01  1.925000E+01  0.000000E+00
  2.500000E-01  1.950000E+01  0.000000E+00
  2.500000E-01  1.975000E+01  0.000000E+00
  2.500000E-01  2.000000E+01  0.000000E+00
  2.500000E-01  2.025000E+01  0.000000E+00
  2.500000E-01  2.050000E+01  0.000000E+00
  2.500000E-01  2.075000E+01  0.000000E+00
  2.500000E-01  2.100000E+01  0.000000E+00
  2.500000E-01  2.125000E+01  0.000000E+00
  2.500000E-01  2.150000E+01  0.000000E+00
  2.500000E-01  2.175000E+01  0.000000E+00
  2.500000E-01  2.200000E+01  0.000000E+00
  2.500000E-01  2.225000E+01  0.000000E+00
  2.500000E-01  2.250000E+01  0.000000E+00
  2.500000E-01  2.275000E+01  0.000000E+00
  2.500000E-01  2.300000E+01  0.000000E+00
  2.500000E-01  2.325000E+01  0.000000E+00
  2.500000E-01  2.350000E+01  0.000000E+00
  2.500000E-01  2.375000E+01  0.000000E+00
  2.500000E-01  2.400000E+01  0.000000E+00
  2.500000E-01  2.425000E+01  0.000000E+00
  2.500000E-01  2.450000E+01  0.000000E+00
  2.500000E-01  2.475000E+01  0.000000E+00
  5.000000E-01  0.000000E+00  0.000000E+00
  5.000000E-01  2.500000E-01  0.000000E+00
  5.000000E-01  5.000000E-01  0.000000E+00
  5.000000E-01  7.500000E-01  0.000000E+00
  5.000000E-01  1.000000E+00  0.000000E+00
  5.000000E-01  1.250000E+00  0.000000E+00
  5.000000E-01  1.500000E+00  0.000000E+00
  5.000000E-01  1.750000E+00  0.000000E+00
  5.000000E-01  2.000000E+00  0.000000E+00
  5.000000E-01  2.250000E+00  0.000000E+00
  5.000000E-01  2.500000E+00  0.000000E+00
  5.000000E-01  2.750000E+00  0.000000E+00
  5.000000E-01  3.000000E+00  0.000000E+00
  5.000000E-01  3.250000E+00  0.000000E+00
  5.000000E-01  3.500000E+00  0.000000E+00
  5.000000E-01  3.750000E+00  0.000000E+00
  5.000000E-01  4.000000E+00  0.000000E+00
  5.000000E-01  4.250000E+00  0.000000E+00
  5.000000E-01  4.500000E+00  0.000000E+00
  5.000000E-01  4.750000E+00  0.000000E+00
  5.000000E-01  5.000000E+00  0.000000E+00
  5.000000E-01  5.250000E+00  0.000000E+00
  5.000000E-01  5.500000E+00  0.000000E+00
  5.000000E-01  5.750000E+00  0.000000E+00
  5.000000E-01  6.000000E+00  0.000000E+00
  5.000000E-01  6.250000E+00  0.000000E+00
  5.000000E-01  6.500000E+00  0.000000E+00
  5.000000E-01  6.750000E+00  0.000000E+00
  5.000000E-01  7.000000E+00  0.000000E+00
  5.000000E-01  7.250000E+00  0.000000E+00
[...]
POINT_DATA  10000
SCALARS CON  float  1
LOOKUP_TABLE default
  3.663291E-01
  3.279324E-01
  2.972551E-01
  2.795474E-01
  2.636959E-01
  2.526034E-01
  2.457192E-01
  2.431661E-01
  2.475562E-01
  2.440567E-01
  2.403863E-01
  2.432684E-01
  2.421879E-01
  2.413094E-01
  2.395028E-01
  2.410495E-01
  2.399418E-01
  2.422970E-01
  2.405200E-01
  2.396929E-01
  2.428143E-01
  2.422797E-01
  2.428151E-01
  2.461346E-01
  2.477303E-01
  2.574769E-01
  2.787903E-01
  3.093302E-01
  3.633802E-01
  4.539804E-01
  5.681718E-01
  6.676005E-01
  7.320418E-01
  7.718754E-01
  7.760073E-01
  7.706091E-01
  7.680987E-01
  7.661557E-01
  7.600301E-01
  7.591470E-01
  7.591395E-01
  7.597101E-01
  7.695867E-01
  7.698235E-01
  7.754438E-01
  7.721356E-01
  7.726275E-01
  7.519040E-01
  7.038661E-01
  6.261123E-01
  5.253339E-01
  4.284672E-01
  3.536069E-01
  3.082439E-01
  2.794064E-01
  2.614376E-01
  2.543768E-01
  2.483419E-01
  2.443882E-01
  2.420064E-01
  2.372115E-01
  2.383873E-01
  2.376984E-01
  2.399799E-01
  2.425881E-01
  2.386742E-01
  2.414666E-01
  2.438306E-01
  2.416589E-01
  2.432158E-01
  2.473901E-01
  2.547213E-01
  2.718375E-01
  2.970880E-01
  3.420078E-01
  4.053254E-01
  4.941857E-01
  5.920320E-01
  6.769361E-01
  7.338981E-01
  7.667427E-01
  7.768855E-01
  7.777594E-01
  7.771076E-01
  7.820181E-01
  7.727138E-01
  7.737720E-01
  7.785784E-01
  7.735749E-01
  7.691066E-01
  7.547022E-01
  7.248395E-01
  6.891639E-01
  6.387672E-01
  5.814125E-01
  5.371388E-01
  5.009750E-01
  4.687306E-01
  4.379014E-01
  4.057422E-01
  3.095673E-01
  2.913148E-01
  2.760041E-01
  2.642426E-01
  2.594500E-01
  2.522177E-01
  2.482191E-01
  2.424520E-01
  2.405486E-01
  2.454173E-01
  2.412504E-01
  2.396454E-01
  2.428102E-01
  2.433116E-01
  2.420338E-01
  2.405639E-01
  2.397190E-01
  2.383935E-01
  2.421109E-01
  2.381558E-01
  2.405916E-01
  2.420617E-01
  2.441758E-01
  2.482874E-01
  2.585134E-01
  2.708977E-01
  3.047022E-01
  3.669041E-01
  4.513398E-01
  5.600331E-01
  6.638273E-01
  7.354710E-01
  7.619959E-01
  7.738577E-01
  7.757718E-01
  7.702568E-01
  7.594042E-01
  7.639993E-01
  7.590369E-01
  7.596636E-01
  7.641790E-01
  7.632774E-01
  7.692965E-01
  7.763576E-01
  7.789837E-01
  7.719530E-01
  7.428107E-01
  6.945333E-01
  6.127839E-01
  5.118976E-01
  4.173009E-01
  3.436097E-01
  2.996654E-01
  2.694418E-01
  2.581715E-01
  2.483840E-01
  2.433920E-01
  2.434976E-01
  2.412714E-01
  2.409652E-01
  2.392779E-01
  2.349029E-01
  2.367699E-01
  2.366716E-01
  2.419915E-01
  2.426724E-01
  2.407218E-01
  2.445692E-01
  2.485521E-01
  2.515703E-01
  2.608092E-01
  2.735834E-01
  3.043109E-01
  3.520634E-01
  4.278400E-01
  5.217344E-01
  6.165018E-01
  6.944271E-01
  7.433099E-01
  7.689747E-01
  7.772066E-01
  7.791750E-01
  7.775027E-01
  7.720479E-01
  7.748506E-01
  7.814363E-01
  7.753963E-01
  7.735063E-01
  7.623133E-01
  7.352377E-01
  6.971654E-01
  6.425699E-01
  5.740899E-01
  5.106401E-01
  4.517025E-01
  4.033408E-01
  3.756574E-01
  3.558366E-01
  3.370762E-01
  3.223630E-01
  2.772745E-01
  2.763283E-01
  2.692382E-01
  2.629410E-01
  2.570712E-01
  2.537337E-01
  2.502420E-01
  2.481855E-01
  2.432364E-01
  2.426351E-01
  2.457724E-01
  2.415193E-01
  2.384352E-01
  2.419863E-01
  2.421880E-01
  2.433945E-01
  2.421843E-01
  2.401473E-01
  2.413566E-01
  2.424141E-01
  2.415506E-01
  2.441001E-01
  2.478580E-01
  2.549425E-01
  2.716898E-01
  3.026338E-01
  3.512575E-01
  4.424036E-01
  5.595506E-01
  6.596119E-01
  7.267043E-01
  7.676566E-01
  7.735230E-01
  7.700268E-01
  7.659565E-01
  7.686017E-01
  7.596160E-01
  7.575950E-01
  7.635230E-01
  7.604005E-01
  7.686583E-01
  7.723960E-01
  7.760886E-01
  7.748303E-01
  7.700427E-01
  7.439856E-01
  6.877637E-01
  5.960520E-01
  4.948137E-01
  4.011924E-01
  3.360151E-01
  2.922008E-01
  2.671633E-01
  2.531509E-01
  2.441454E-01
  2.434838E-01
  2.403028E-01
  2.395414E-01
  2.406654E-01
  2.404670E-01
  2.413461E-01
  2.399216E-01
  2.356378E-01
  2.351279E-01
  2.377513E-01
  2.424774E-01
  2.446083E-01
  2.455781E-01
  2.524568E-01
  2.635661E-01
  2.838607E-01
  3.132910E-01
  3.641818E-01
  4.399068E-01
  5.394424E-01
  6.378921E-01
  7.100845E-01
  7.532272E-01
  7.744708E-01
  7.781223E-01
  7.802642E-01
  7.761293E-01
  7.801288E-01
  7.777927E-01
  7.757395E-01
  7.760120E-01
  7.716649E-01
  7.496067E-01
  7.141405E-01
  6.588131E-01
  5.862095E-01
  5.112079E-01
  4.428217E-01
  3.839556E-01
  3.457005E-01
  3.170448E-01
  2.961387E-01
  2.897360E-01
  2.844370E-01
  2.781187E-01
  2.583378E-01
  2.621999E-01
  2.652395E-01
  2.619402E-01
  2.606054E-01
  2.548472E-01
  2.516631E-01
  2.484335E-01
  2.456364E-01
  2.427025E-01
  2.422482E-01
  2.469134E-01
  2.423069E-01
  2.395121E-01
  2.406011E-01
  2.406546E-01
  2.431594E-01
  2.396575E-01
  2.409377E-01
  2.401837E-01
  2.437964E-01
  2.459112E-01
  2.543512E-01
  2.671599E-01
  2.952773E-01
  3.490163E-01
  4.329097E-01
  5.398947E-01
  6.528377E-01
  7.318454E-01
  7.595290E-01
  7.717804E-01
  7.732649E-01
  7.688576E-01
  7.597039E-01
  7.628390E-01
  7.632931E-01
  7.601320E-01
  7.632968E-01
  7.680293E-01
  7.711554E-01
  7.758131E-01
  7.788181E-01
  7.680289E-01
  7.371124E-01
  6.802007E-01
  5.900894E-01
  4.861340E-01
  3.910842E-01
  3.277462E-01
  2.897368E-01
  2.666205E-01
  2.540480E-01
  2.448038E-01
  2.409447E-01
  2.371140E-01
  2.387441E-01
  2.382430E-01
  2.376081E-01
  2.388204E-01
  2.391636E-01
  2.405346E-01
  2.421165E-01
  2.359203E-01
  2.374234E-01
  2.412586E-01
  2.480832E-01
  2.565740E-01
  2.673235E-01
  2.865464E-01
  3.270205E-01
  3.843209E-01
  4.673814E-01
  5.611921E-01
  6.523750E-01
  7.212887E-01
  7.602204E-01
  7.753550E-01
  7.789800E-01
  7.788859E-01
  7.762268E-01
  7.742674E-01
  7.753358E-01
  7.808429E-01
  7.779667E-01
  7.684633E-01
  7.412887E-01
  6.937761E-01
  6.212149E-01
  5.374309E-01
  4.575953E-01
  3.894815E-01
  3.428767E-01
  3.112546E-01
  2.871794E-01
  2.752766E-01
  2.643951E-01
  2.570506E-01
  2.596508E-01
  2.591411E-01
  2.541410E-01
  2.557810E-01
  2.610590E-01
  2.628942E-01
  2.620145E-01
  2.620239E-01
  2.567328E-01
  2.545254E-01
  2.492726E-01
  2.462931E-01
  2.417425E-01
  2.415007E-01
  2.458249E-01
  2.437180E-01
  2.410570E-01
  2.410107E-01
  2.436564E-01
  2.433055E-01
  2.429683E-01
  2.438805E-01
  2.448840E-01
  2.523806E-01
  2.651358E-01
  2.909954E-01
  3.360044E-01
  4.179712E-01
  5.301483E-01
  6.418902E-01
  7.155375E-01
  7.634313E-01
  7.736769E-01
  7.683872E-01
  7.644232E-01
  7.668187E-01
  7.595705E-01
  7.593186E-01
  7.636573E-01
  7.660299E-01
  7.701640E-01
  7.714176E-01
  7.787633E-01
  7.738908E-01
  7.640265E-01
  7.326530E-01
  6.688526E-01
  5.772124E-01
  4.737113E-01
  3.831840E-01
  3.235246E-01
  2.812908E-01
  2.628812E-01
  2.512624E-01
  2.465977E-01
  2.430876E-01
  2.392144E-01
  2.386982E-01
  2.353311E-01
  2.385693E-01
  2.389912E-01
  2.384787E-01
  2.397468E-01
  2.377047E-01
  2.418572E-01
  2.429244E-01
  2.383095E-01
  2.430512E-01
  2.506295E-01
  2.663594E-01
  2.960411E-01
  3.328472E-01
  3.979001E-01
  4.873104E-01
  5.876201E-01
  6.731407E-01
  7.291360E-01
  7.637985E-01
  7.782485E-01
  7.800950E-01
  7.787101E-01
  7.746012E-01
  7.807133E-01
  7.781821E-01
  7.774197E-01
  7.747164E-01
  7.627707E-01
  7.308819E-01
  6.740160E-01
  5.892615E-01
  4.982761E-01
  4.128607E-01
  3.523592E-01
  3.119502E-01
  2.838135E-01
  2.686692E-01
  2.599940E-01
  2.531898E-01
  2.511454E-01
  2.466816E-01
  2.457173E-01
  2.517826E-01
  2.488060E-01
  2.527159E-01
  2.577156E-01
  2.620376E-01
  2.633642E-01
  2.623415E-01
  2.613341E-01
  2.577663E-01
  2.552442E-01
  2.511701E-01
  2.476147E-01
  2.430824E-01
  2.401938E-01
  2.443808E-01
  2.434489E-01
  2.383909E-01
  2.417204E-01
  2.420906E-01
  2.443044E-01
  2.464376E-01
  2.522573E-01
  2.602326E-01
  2.852455E-01
  3.297086E-01
  4.040088E-01
  5.106409E-01
  6.276732E-01
  7.149160E-01
  7.557707E-01
  7.677932E-01
  7.713150E-01
  7.702356E-01
  7.589293E-01
  7.626583E-01
  7.628133E-01
  7.620644E-01
  7.666611E-01
  7.689376E-01
  7.771281E-01
  7.767709E-01
  7.749646E-01
  7.610443E-01
  7.220194E-01
  6.579007E-01
  5.635724E-01
  4.612940E-01
  3.778152E-01
  3.184995E-01
  2.837231E-01
  2.634446E-01
  2.496161E-01
  2.444443E-01
  2.414657E-01
  2.410677E-01
  2.393835E-01
  2.378273E-01
  2.372046E-01
  2.338028E-01
  2.374785E-01
  2.383382E-01
  2.408292E-01
  2.402930E-01
  2.404610E-01
  2.461209E-01
  2.496532E-01
  2.518216E-01
  2.675451E-01
  2.898306E-01
  3.400302E-01
  4.143672E-01
  5.081729E-01
  6.072337E-01
  6.908160E-01
  7.439900E-01
  7.687294E-01
  7.754069E-01
  7.776299E-01
  7.758024E-01
  7.787764E-01
  7.729262E-01
  7.742197E-01
  7.815523E-01
  7.758341E-01
  7.589366E-01
  7.180877E-01
  6.522632E-01
  5.649162E-01
  4.691006E-01
  3.870189E-01
  3.310522E-01
  2.928247E-01
  2.721426E-01
  2.603952E-01
  2.512095E-01
  2.466452E-01
  2.459001E-01
  2.443752E-01
  2.436488E-01
  2.411101E-01
  2.415619E-01
  2.433034E-01
  2.493493E-01
  2.559669E-01
  2.626858E-01
  2.678392E-01
  2.703273E-01
  2.671168E-01
  2.654987E-01
  2.594343E-01
  2.562141E-01
  2.511395E-01
  2.496100E-01
  2.447719E-01
  2.406793E-01
  2.474690E-01
  2.434392E-01
  2.416239E-01
  2.441516E-01
  2.459338E-01
  2.511520E-01
  2.622639E-01
  2.821984E-01
  3.167487E-01
  3.900147E-01
  4.936368E-01
  6.100085E-01
  6.989969E-01
  7.542428E-01
  7.684859E-01
  7.710638E-01
  7.612841E-01
  7.656899E-01
  7.614647E-01
  7.602156E-01
  7.650465E-01
  7.664493E-01
  7.733810E-01
  7.749138E-01
  7.794748E-01
  7.766791E-01
  7.590274E-01
  7.158645E-01
  6.434835E-01
  5.458791E-01
  4.465324E-01
  3.648005E-01
  3.119669E-01
  2.786277E-01
  2.611617E-01
  2.501706E-01
  2.464841E-01
  2.405781E-01
  2.399513E-01
  2.398739E-01
  2.397040E-01
  2.395057E-01
  2.387781E-01
  2.382301E-01
  2.348744E-01
  2.362123E-01
  2.399140E-01
  2.420887E-01
  2.435819E-01
  2.477161E-01
  2.582255E-01
  2.719703E-01
  2.965955E-01
  3.413276E-01
  4.133569E-01
  5.151425E-01
  6.248854E-01
  7.022971E-01
  7.490658E-01
  7.744171E-01
  7.787527E-01
  7.784843E-01
  7.766200E-01
  7.715448E-01
  7.776580E-01
  7.821730E-01
  7.761803E-01
  7.700564E-01
  7.528865E-01
  7.080271E-01
  6.343807E-01
  5.355578E-01
  4.417486E-01
  3.671295E-01
  3.155060E-01
  2.815406E-01
  2.631143E-01
  2.502707E-01
  2.453905E-01
  2.446278E-01
  2.410196E-01
  2.396711E-01
  2.429832E-01
  2.431805E-01
  2.437304E-01
  2.422644E-01
  2.448290E-01
  2.454212E-01
  2.524664E-01
  2.609032E-01
  2.685451E-01
  2.769426E-01
  2.796705E-01
  2.770248E-01
  2.731159E-01
  2.648576E-01
  2.570956E-01
  2.508235E-01
  2.496715E-01
  2.420281E-01
  2.413335E-01
  2.454934E-01
  2.440942E-01
  2.442777E-01
  2.509389E-01
  2.581889E-01
  2.779262E-01
  3.159548E-01
  3.781287E-01
  4.724132E-01
  5.937957E-01
  6.916836E-01
  7.445333E-01
  7.663194E-01
  7.687512E-01
  7.667173E-01
  7.625114E-01
  7.607178E-01
  7.625701E-01
  7.646506E-01
  7.694703E-01
  7.713223E-01
  7.774504E-01
  7.788130E-01
  7.765086E-01
  7.592951E-01
  7.182390E-01
  6.412451E-01
  5.329475E-01
  4.326136E-01
  3.567111E-01
  3.062989E-01
  2.773694E-01
  2.595813E-01
  2.510848E-01
  2.451294E-01
  2.417870E-01
  2.418037E-01
  2.374117E-01
  2.388626E-01
  2.385686E-01
  2.383162E-01
  2.385615E-01
  2.382798E-01
  2.407856E-01
  2.357387E-01
  2.394900E-01
  2.450745E-01
  2.505107E-01
  2.604757E-01
  2.780653E-01
  3.065974E-01
  3.574751E-01
  4.265402E-01
  5.272635E-01
  6.258616E-01
  7.083836E-01
  7.590412E-01
  7.735849E-01
  7.768495E-01
  7.778557E-01
  7.703802E-01
  7.766682E-01
  7.728111E-01
  7.719640E-01
  7.781033E-01
  7.742853E-01
  7.465412E-01
  6.926846E-01
  6.165071E-01
  5.186835E-01
  4.232263E-01
  3.498549E-01
  3.040299E-01
  2.770899E-01
  2.610162E-01
  2.502759E-01
  2.454689E-01
  2.392240E-01
  2.392105E-01
  2.414947E-01
  2.377378E-01
  2.372541E-01
  2.411158E-01
  2.417256E-01
  2.432432E-01
  2.466703E-01
  2.507221E-01
  2.542679E-01
  2.665218E-01
  2.779623E-01
  2.896797E-01
  2.979818E-01
  2.989592E-01
  2.911539E-01
  2.841463E-01
  2.710049E-01
  2.594304E-01
  2.545379E-01
  2.495424E-01
  2.451847E-01
  2.432132E-01
  2.485235E-01
  2.493441E-01
  2.569514E-01
  2.751031E-01
  3.046010E-01
  3.665822E-01
  4.615604E-01
  5.755528E-01
  6.717547E-01
  7.412409E-01
  7.635427E-01
  7.681574E-01
  7.627021E-01
  7.643866E-01
  7.578134E-01
  7.639045E-01
  7.647776E-01
  7.667951E-01
  7.757172E-01
  7.780452E-01
  7.814644E-01
  7.749236E-01
  7.584715E-01
  7.155096E-01
  6.373890E-01
  5.360733E-01
  4.285054E-01
  3.443868E-01
  2.984684E-01
  2.703657E-01
  2.571047E-01
  2.483651E-01
  2.450297E-01
  2.432345E-01
  2.412944E-01
  2.405741E-01
  2.406867E-01
  2.376992E-01
  2.399374E-01
  2.397272E-01
  2.395933E-01
  2.375841E-01
  2.402978E-01
  2.427499E-01
  2.401332E-01
  2.486525E-01
  2.605051E-01
  2.788551E-01
  3.163321E-01
  3.681453E-01
  4.493625E-01
  5.454676E-01
  6.378195E-01
  7.124295E-01
  7.535496E-01
  7.751401E-01
  7.802110E-01
  7.737328E-01
  7.755801E-01
  7.719588E-01
  7.724564E-01
  7.806448E-01
  7.759917E-01
  7.649719E-01
  7.405468E-01
  6.883458E-01
  5.986956E-01
  4.923810E-01
  4.059760E-01
  3.391549E-01
  2.957588E-01
  2.684872E-01
  2.546470E-01
  2.475531E-01
  2.434697E-01
  2.410498E-01
  2.398170E-01
  2.354497E-01
  2.385216E-01
  2.417972E-01
  2.387972E-01
  2.390716E-01
  2.432295E-01
  2.423629E-01
  2.465199E-01
  2.543720E-01
  2.630613E-01
  2.767244E-01
  3.001623E-01
  3.240216E-01
  3.403917E-01
  3.444280E-01
  3.302740E-01
  3.086102E-01
  2.919937E-01
  2.702863E-01
  2.603006E-01
  2.518493E-01
  2.496335E-01
  2.469906E-01
  2.484897E-01
  2.579630E-01
  2.704068E-01
  3.001142E-01
  3.548123E-01
  4.411713E-01
  5.591634E-01
  6.674172E-01
  7.307336E-01
  7.592189E-01
  7.668983E-01
  7.660709E-01
  7.598078E-01
  7.618066E-01
  7.622020E-01
  7.615182E-01
  7.731600E-01
  7.728060E-01
  7.778939E-01
  7.800684E-01
  7.794188E-01
  7.614110E-01
  7.180367E-01
  6.423849E-01
  5.321076E-01
  4.264280E-01
  3.516466E-01
  2.984612E-01
  2.678240E-01
  2.538510E-01
  2.474706E-01
  2.435742E-01
  2.412562E-01
  2.410082E-01
  2.403955E-01
  2.403908E-01
  2.393951E-01
  2.394200E-01
  2.369053E-01
  2.396417E-01
  2.426377E-01
  2.410784E-01
  2.418991E-01
  2.471196E-01
  2.538057E-01
  2.610102E-01
  2.856861E-01
  3.195496E-01
  3.808541E-01
  4.679187E-01
  5.696661E-01
  6.605926E-01
  7.246432E-01
  7.590602E-01
  7.749235E-01
  7.749904E-01
  7.744177E-01
  7.707767E-01
  7.699326E-01
  7.726891E-01
  7.736639E-01
  7.742402E-01
  7.702837E-01
  7.375285E-01
  6.730047E-01
  5.857545E-01
  4.865528E-01
  3.913853E-01
  3.255287E-01
  2.904178E-01
  2.680985E-01
  2.550974E-01
  2.465059E-01
  2.430820E-01
  2.404222E-01
  2.399204E-01
  2.397110E-01
  2.377202E-01
  2.338379E-01
  2.371639E-01
  2.405872E-01
  2.384307E-01
  2.418115E-01
  2.457723E-01
  2.579180E-01
  2.675882E-01
  2.860340E-01
  3.118818E-01
  3.450521E-01
  3.903889E-01
  4.239690E-01
  4.323831E-01
  4.080462E-01
  3.623854E-01
  3.229557E-01
  2.926092E-01
  2.720544E-01
  2.603061E-01
  2.533154E-01
  2.531754E-01
  2.569139E-01
  2.673864E-01
  2.948925E-01
  3.426034E-01
  4.241910E-01
  5.376733E-01
  6.448601E-01
  7.253495E-01
  7.581876E-01
  7.666403E-01
  7.592053E-01
  7.635477E-01
  7.575326E-01
  7.609657E-01
  7.655957E-01
  7.681498E-01
  7.726487E-01
  7.810976E-01
  7.840559E-01
  7.763936E-01
  7.655221E-01
  7.291342E-01
  6.505266E-01
  5.411121E-01
  4.304789E-01
  3.443734E-01
  2.960143E-01
  2.702174E-01
  2.543276E-01
  2.427618E-01
  2.416797E-01
  2.409453E-01
  2.404199E-01
  2.403853E-01
  2.400913E-01
  2.408136E-01
  2.415740E-01
  2.406946E-01
  2.409416E-01
  2.363391E-01
  2.423806E-01
  2.459017E-01
  2.478064E-01
  2.549094E-01
  2.685566E-01
  2.911465E-01
  3.292528E-01
  3.928164E-01
  4.812727E-01
  5.815565E-01
  6.749597E-01
  7.343823E-01
  7.652371E-01
  7.770094E-01
  7.741432E-01
  7.739129E-01
  7.721498E-01
  7.696341E-01
  7.735573E-01
  7.749360E-01
  7.771614E-01
  7.666693E-01
  7.354158E-01
  6.757235E-01
  5.769366E-01
  4.648930E-01
  3.808738E-01
  3.233707E-01
  2.830650E-01
  2.596912E-01
  2.515564E-01
  2.454256E-01
  2.418795E-01
  2.399759E-01
  2.391206E-01
  2.376908E-01
  2.399097E-01
  2.404181E-01
  2.390082E-01
  2.357695E-01
  2.393272E-01
  2.413146E-01
  2.422168E-01
  2.489703E-01
  2.680690E-01
  2.954181E-01
  3.303298E-01
  3.843140E-01
  4.450202E-01
  5.046109E-01
  5.526547E-01
  5.609584E-01
  5.197664E-01
  4.398794E-01
  3.671758E-01
  3.128846E-01
  2.857056E-01
  2.691085E-01
  2.623856E-01
  2.595008E-01
  2.692165E-01
  2.909766E-01
  3.311349E-01
  4.102145E-01
  5.169791E-01
  6.313317E-01
  7.117182E-01
  7.528216E-01
  7.619458E-01
  7.657468E-01
  7.601353E-01
  7.577803E-01
  7.607426E-01
  7.616682E-01
  7.699272E-01
  7.739508E-01
  7.809542E-01
  7.768270E-01
  7.849259E-01
  7.699139E-01
  7.366989E-01
  6.742267E-01
  5.635441E-01
  4.426348E-01
  3.539008E-01
  2.988033E-01
  2.683468E-01
  2.531632E-01
  2.490968E-01
  2.423494E-01
  2.367583E-01
  2.383190E-01
  2.384848E-01
  2.397095E-01
  2.393288E-01
  2.389431E-01
  2.401625E-01
  2.415152E-01
  2.440611E-01
  2.432709E-01
  2.421454E-01
  2.519532E-01
  2.618572E-01
  2.771776E-01
  3.049779E-01
  3.455086E-01
  4.148406E-01
  4.999246E-01
  6.039635E-01
  6.853719E-01
  7.405336E-01
  7.717667E-01
  7.757896E-01
  7.750899E-01
  7.746691E-01
  7.649769E-01
  7.700260E-01
  7.692545E-01
  7.730721E-01
  7.757792E-01
  7.688092E-01
  7.406816E-01
  6.742267E-01
  5.755853E-01
  4.698300E-01
  3.748486E-01
  3.117511E-01
  2.804205E-01
  2.640834E-01
  2.507016E-01
  2.429736E-01
  2.431576E-01
  2.402144E-01
  2.394850E-01
  2.393253E-01
  2.374289E-01
  2.363216E-01
  2.386936E-01
  2.392823E-01
  2.387068E-01
  2.386456E-01
  2.422660E-01
  2.465786E-01
  2.526470E-01
  2.960974E-01
  3.420273E-01
  4.109014E-01
  4.934142E-01
  5.809406E-01
  6.488597E-01
  6.871963E-01
  6.927479E-01
  6.403013E-01
  5.295972E-01
  4.199826E-01
  3.410135E-01
  2.966199E-01
  2.790542E-01
  2.727565E-01
  2.754890E-01
  2.873818E-01
  3.263988E-01
  3.930682E-01
  4.923026E-01
  6.105787E-01
  7.011302E-01
  7.457417E-01
  7.638859E-01
  7.594118E-01
  7.592203E-01
  7.572149E-01
  7.612953E-01
  7.614841E-01
  7.670651E-01
  7.736349E-01
  7.772126E-01
  7.853175E-01
  7.806581E-01
  7.709756E-01
  7.557585E-01
  6.947326E-01
  5.928261E-01
  4.720443E-01
  3.660678E-01
  3.023952E-01
  2.685325E-01
  2.536709E-01
  2.434359E-01
  2.415497E-01
  2.431008E-01
  2.396337E-01
  2.361884E-01
  2.376106E-01
  2.390335E-01
  2.409917E-01
  2.407614E-01
  2.407080E-01
  2.400602E-01
  2.451726E-01
  2.490584E-01
  2.531883E-01
  2.607170E-01
  2.831835E-01
  3.152920E-01
  3.697601E-01
  4.405608E-01
  5.309102E-01
  6.228549E-01
  6.960935E-01
  7.478347E-01
  7.692540E-01
  7.767422E-01
  7.778043E-01
  7.687538E-01
  7.694558E-01
  7.707627E-01
  7.689630E-01
  7.748522E-01
  7.754904E-01
  7.689163E-01
  7.414391E-01
  6.793533E-01
  5.826247E-01
  4.659276E-01
  3.733781E-01
  3.150537E-01
  2.768066E-01
  2.546747E-01
  2.477965E-01
  2.453076E-01
  2.399294E-01
  2.379040E-01
  2.400382E-01
  2.379817E-01
  2.397673E-01
  2.401800E-01
  2.388054E-01
  2.383538E-01
  2.409704E-01
  2.401961E-01
  2.429339E-01
  2.467563E-01
  2.567009E-01
  2.730748E-01
  3.543163E-01
  4.270845E-01
  5.243837E-01
  6.242138E-01
  6.955496E-01
  7.470554E-01
  7.772053E-01
  7.770685E-01
  7.116477E-01
  5.874695E-01
  4.531487E-01
  3.596678E-01
  3.093263E-01
  2.847256E-01
  2.835405E-01
  2.956587E-01
  3.239244E-01
  3.794377E-01
  4.764497E-01
  5.910444E-01
  6.808209E-01
  7.418480E-01
  7.561654E-01
  7.607036E-01
  7.606130E-01
  7.584913E-01
  7.562380E-01
  7.607727E-01
  7.703422E-01