# vtk DataFile Version 2.0
title
ASCII
DATASET STRUCTURED_GRID
DIMENSIONS   64   64    1
POINTS   4096  float
  0.000000E+00  0.000000E+00  0.000000E+00
  0.000000E+00  3.906250E-01  0.000000E+00
  0.000000E+00  7.812500E-01  0.000000E+00
  0.000000E+00  1.171875E+00  0.000000E+00
  0.000000E+00  1.562500E+00  0.000000E+00
  0.000000E+00  1.953125E+00  0.000000E+00
  0.000000E+00  2.343750E+00  0.000000E+00
  0.000000E+00  2.734375E+00  0.000000E+00
  0.000000E+00  3.125000E+00  0.000000E+00
  0.000000E+00  3.515625E+00  0.000000E+00
  0.000000E+00  3.906250E+00  0.000000E+00
  0.000000E+00  4.296875E+00  0.000000E+00
  0.000000E+00  4.687500E+00  0.000000E+00
  0.000000E+00  5.078125E+00  0.000000E+00
  0.000000E+00  5.468750E+00  0.000000E+00
  0.000000E+00  5.859375E+00  0.000000E+00
  0.000000E+00  6.250000E+00  0.000000E+00
  0.000000E+00  6.640625E+00  0.000000E+00
  0.000000E+00  7.031250E+00  0.000000E+00
  0.000000E+00  7.421875E+00  0.000000E+00
  0.000000E+00  7.812500E+00  0.000000E+00
  0.000000E+00  8.203125E+00  0.000000E+00
  0.000000E+00  8.593750E+00  0.000000E+00
  0.000000E+00  8.984375E+00  0.000000E+00
  0.000000E+00  9.375000E+00  0.000000E+00
  0.000000E+00  9.765625E+00  0.000000E+00
  0.000000E+00  1.015625E+01  0.000000E+00
  0.000000E+00  1.054688E+01  0.000000E+00
  0.000000E+00  1.093750E+01  0.000000E+00
  0.000000E+00  1.132812E+01  0.000000E+00
  0.000000E+00  1.171875E+01  0.000000E+00
  0.000000E+00  1.210938E+01  0.000000E+00
  0.000000E+00  1.250000E+01  0.000000E+00
  0.000000E+00  1.289062E+01  0.000000E+00
  0.000000E+00  1.328125E+01  0.000000E+00
  0.000000E+00  1.367188E+01  0.000000E+00
  0.000000E+00  1.406250E+01  0.000000E+00
  0.000000E+00  1.445312E+01  0.000000E+00
  0.000000E+00  1.484375E+01  0.000000E+00
  0.000000E+00  1.523438E+01  0.000000E+00
  0.000000E+00  1.562500E+01  0.000000E+00
  0.000000E+00  1.601562E+01  0.000000E+00
  0.000000E+00  1.640625E+01  0.000000E+00
  0.000000E+00  1.679688E+01  0.000000E+00
  0.000000E+00  1.718750E+01  0.000000E+00
  0.000000E+00  1.757812E+01  0.000000E+00
  0.000000E+00  1.796875E+01  0.000000E+00
  0.000000E+00  1.835938E+01  0.000000E+00
  0.000000E+00  1.875000E+01  0.000000E+00
  0.000000E+00  1.914062E+01  0.000000E+00
  0.000000E+00  1.953125E+01  0.000000E+00
  0.000000E+00  1.992188E+01  0.000000E+00
  0.000000E+00  2.031250E+01  0.000000E+00
  0.000000E+00  2.070312E+01  0.000000E+00
  0.000000E+00  2.109375E+01  0.000000E+00
  0.000000E+00  2.148438E+01  0.000000E+00
  0.000000E+00  2.187500E+01  0.000000E+00
  0.000000E+00  2.226562E+01  0.000000E+00
  0.000000E+00  2.265625E+01  0.000000E+00
  0.000000E+00  2.304688E+01  0.000000E+00
  0.000000E+00  2.343750E+01  0.000000E+00
  0.000000E+00  2.382812E+01  0.000000E+00
  0.000000E+00  2.421875E+01  0.000000E+00
  0.000000E+00  2.460938E+01  0.000000E+00
  3.906250E-01  0.000000E+00  0.000000E+00
  3.906250E-01  3.906250E-01  0.000000E+00
  3.906250E-01  7.812500E-01  0.000000E+00
  3.906250E-01  1.171875E+00  0.000000E+00
  3.906250E-01  1.562500E+00  0.000000E+00
  3.906250E-01  1.953125E+00  0.000000E+00
  3.906250E-01  2.343750E+00  0.000000E+00
  3.906250E-01  2.734375E+00  0.000000E+00
  3.906250E-01  3.125000E+00  0.000000E+00
  3.906250E-01  3.515625E+00  0.000000E+00
  3.906250E-01  3.906250E+00  0.000000E+00
  3.906250E-01  4.296875E+00  0.000000E+00
  3.906250E-01  4.687500E+00  0.000000E+00
  3.906250E-01  5.078125E+00  0.000000E+00
  3.906250E-01  5.468750E+00  0.000000E+00
  3.906250E-01  5.859375E+00  0.000000E+00
  3.906250E-01  6.250000E+00  0.000000E+00
  3.906250E-01  6.640625E+00  0.000000E+00
  3.906250E-01  7.031250E+00  0.000000E+00
  3.906250E-01  7.421875E+00  0.000000E+00
  3.906250E-01  7.812500E+00  0.000000E+00
  3.906250E-01  8.203125E+00  0.000000E+00
  3.906250E-01  8.593750E+00  0.000000E+00
  3.906250E-01  8.984375E+00  0.000000E+00
  3.906250E-01  9.375000E+00  0.000000E+00
  3.906250E-01  9.765625E+00  0.000000E+00
  3.906250E-01  1.015625E+01  0.000000E+00
  3.906250E-01  1.054688E+01  0.000000E+00
  3.906250E-01  1.093750E+01  0.000000E+00
  3.906250E-01  1.132812E+01  0.000000E+00
  3.906250E-01  1.171875E+01  0.000000E+00
  3.906250E-01  1.210938E+01  0.000000E+00
  3.906250E-01  1.250000E+01  0.000000E+00
  3.906250E-01  1.289062E+01  0.000000E+00
  3.906250E-01  1.328125E+01  0.000000E+00
  3.906250E-01  1.367188E+01  0.000000E+00
  3.906250E-01  1.406250E+01  0.000000E+00
  3.906250E-01  1.445312E+01  0.000000E+00
  3.906250E-01  1.484375E+01  0.000000E+00
  3.906250E-01  1.523438E+01  0.000000E+00
  3.906250E-01  1.562500E+01  0.000000E+00
  3.906250E-01  1.601562E+01  0.000000E+00
  3.906250E-01  1.640625E+01  0.000000E+00
  3.906250E-01  1.679688E+01  0.000000E+00
  3.906250E-01  1.718750E+01  0.000000E+00
  3.906250E-01  1.757812E+01  0.000000E+00
  3.906250E-01  1.796875E+01  0.000000E+00
  3.906250E-01  1.835938E+01  0.000000E+00
  3.906250E-01  1.875000E+01  0.000000E+00
  3.906250E-01  1.914062E+01  0.000000E+00
  3.906250E-01  1.953125E+01  0.000000E+00
  3.906250E-01  1.992188E+01  0.000000E+00
  3.906250E-01  2.031250E+01  0.000000E+00
  3.906250E-01  2.070312E+01  0.000000E+00
  3.906250E-01  2.109375E+01  0.000000E+00
  3.906250E-01  2.148438E+01  0.000000E+00
  3.906250E-01  2.187500E+01  0.000000E+00
  3.906250E-01  2.226562E+01  0.000000E+00
  3.906250E-01  2.265625E+01  0.000000E+00
  3.906250E-01  2.304688E+01  0.000000E+00
  3.906250E-01  2.343750E+01  0.000000E+00
  3.906250E-01  2.382812E+01  0.000000E+00
  3.906250E-01  2.421875E+01  0.000000E+00
  3.906250E-01  2.460938E+01  0.000000E+00
  7.812500E-01  0.000000E+00  0.000000E+00
  7.812500E-01  3.906250E-01  0.000000E+00
  7.812500E-01  7.812500E-01  0.000000E+00
  7.812500E-01  1.171875E+00  0.000000E+00
  7.812500E-01  1.562500E+00  0.000000E+00
  7.812500E-01  1.953125E+00  0.000000E+00
  7.812500E-01  2.343750E+00  0.000000E+00
  7.812500E-01  2.734375E+00  0.000000E+00
  7.812500E-01  3.125000E+00  0.000000E+00
  7.812500E-01  3.515625E+00  0.000000E+00
  7.812500E-01  3.906250E+00  0.000000E+00
  7.812500E-01  4.296875E+00  0.000000E+00
  7.812500E-01  4.687500E+00  0.000000E+00
  7.812500E-01  5.078125E+00  0.000000E+00
  7.812500E-01  5.468750E+00  0.000000E+00
  7.812500E-01  5.859375E+00  0.000000E+00
  7.812500E-01  6.250000E+00  0.000000E+00
  7.812500E-01  6.640625E+00  0.000000E+00
  7.812500E-01  7.031250E+00  0.000000E+00
  7.812500E-01  7.421875E+00  0.000000E+00
  7.812500E-01  7.812500E+00  0.000000E+00
  7.812500E-01  8.203125E+00  0.000000E+00
  7.812500E-01  8.593750E+00  0.000000E+00
  7.812500E-01  8.984375E+00  0.000000E+00
  7.812500E-01  9.375000E+00  0.000000E+00
  7.812500E-01  9.765625E+00  0.000000E+00
  7.812500E-01  1.015625E+01  0.000000E+00
  7.812500E-01  1.054688E+01  0.000000E+00
  7.812500E-01  1.093750E+01  0.000000E+00
  7.812500E-01  1.132812E+01  0.000000E+00
  7.812500E-01  1.171875E+01  0.000000E+00
  7.812500E-01  1.210938E+01  0.000000E+00
  7.812500E-01  1.250000E+01  0.000000E+00
  7.812500E-01  1.289062E+01  0.000000E+00
  7.812500E-01  1.328125E+01  0.000000E+00
  7.812500E-01  1.367188E+01  0.000000E+00
  7.812500E-01  1.406250E+01  0.000000E+00
  7.812500E-01  1.445312E+01  0.000000E+00
  7.812500E-01  1.484375E+01  0.000000E+00
  7.812500E-01  1.523438E+01  0.000000E+00
  7.812500E-01  1.562500E+01  0.000000E+00
  7.812500E-01  1.601562E+01  0.000000E+00
  7.812500E-01  1.640625E+01  0.000000E+00
  7.812500E-01  1.679688E+01  0.000000E+00
  7.812500E-01  1.718750E+01  0.000000E+00
  7.812500E-01  1.757812E+01  0.000000E+00
  7.812500E-01  1.796875E+01  0.000000E+00
  7.812500E-01  1.835938E+01  0.000000E+00
  7.812500E-01  1.875000E+01  0.000000E+00
  7.812500E-01  1.914062E+01  0.000000E+00
  7.812500E-01  1.953125E+01  0.000000E+00
  7.812500E-01  1.992188E+01  0.000000E+00
  7.812500E-01  2.031250E+01  0.000000E+00
  7.812500E-01  2.070312E+01  0.000000E+00
  7.812500E-01  2.109375E+01  0.000000E+00
  7.812500E-01  2.148438E+01  0.000000E+00
  7.812500E-01  2.187500E+01  0.000000E+00
  7.812500E-01  2.226562E+01  0.000000E+00
  7.812500E-01  2.265625E+01  0.000000E+00
  7.812500E-01  2.304688E+01  0.000000E+00
  7.812500E-01  2.343750E+01  0.000000E+00
  7.812500E-01  2.382812E+01  0.000000E+00
  7.812500E-01  2.421875E+01  0.000000E+00
  7.812500E-01  2.460938E+01  0.000000E+00
  1.171875E+00  0.000000E+00  0.000000E+00
  1.171875E+00  3.906250E-01  0.000000E+00
  1.171875E+00  7.812500E-01  0.000000E+00
  1.171875E+00  1.171875E+00  0.000000E+00
  1.171875E+00  1.562500E+00  0.000000E+00
  1.171875E+00  1.953125E+00  0.000000E+00
  1.171875E+00  2.343750E+00  0.000000E+00
  1.171875E+00  2.734375E+00  0.000000E+00
  1.171875E+00  3.125000E+00  0.000000E+00
  1.171875E+00  3.515625E+00  0.000000E+00
  1.171875E+00  3.906250E+00  0.000000E+00
  1.171875E+00  4.296875E+00  0.000000E+00
  1.171875E+00  4.687500E+00  0.000000E+00
  1.171875E+00  5.078125E+00  0.000000E+00
  1.171875E+00  5.468750E+00  0.000000E+00
  1.171875E+00  5.859375E+00  0.000000E+00
  1.171875E+00  6.250000E+00  0.000000E+00
  1.171875E+00  6.640625E+00  0.000000E+00
  1.171875E+00  7.031250E+00  0.000000E+00
  1.171875E+00  7.421875E+00  0.000000E+00
  1.171875E+00  7.812500E+00  0.000000E+00
  1.171875E+00  8.203125E+00  0.000000E+00
  1.171875E+00  8.593750E+00  0.000000E+00
  1.171875E+00  8.984375E+00  0.000000E+00
  1.171875E+00  9.375000E+00  0.000000E+00
  1.171875E+00  9.765625E+00  0.000000E+00
  1.171875E+00  1.015625E+01  0.000000E+00
  1.171875E+00  1.054688E+01  0.000000E+00
  1.171875E+00  1.093750E+01  0.000000E+00
  1.171875E+00  1.132812E+01  0.000000E+00
  1.171875E+00  1.171875E+01  0.000000E+00
  1.171875E+00  1.210938E+01  0.000000E+00
  1.171875E+00  1.250000E+01  0.000000E+00
  1.171875E+00  1.289062E+01  0.000000E+00
  1.171875E+00  1.328125E+01  0.000000E+00
  1.171875E+00  1.367188E+01  0.000000E+00
  1.171875E+00  1.406250E+01  0.000000E+00
  1.171875E+00  1.445312E+01  0.000000E+00
[...]
POINT_DATA   4096
SCALARS CON  float  1
LOOKUP_TABLE default
  4.714554E-01
  4.721777E-01
  4.787298E-01
  4.750681E-01
  4.754530E-01
  4.682796E-01
  4.703951E-01
  4.685921E-01
  4.750721E-01
  4.730488E-01
  4.751315E-01
  4.680782E-01
  4.681405E-01
  4.632456E-01
  4.679843E-01
  4.676289E-01
  4.745080E-01
  4.728618E-01
  4.758501E-01
  4.697890E-01
  4.700686E-01
  4.638391E-01
  4.653366E-01
  4.601520E-01
  4.620827E-01
  4.580015E-01
  4.630515E-01
  4.636391E-01
  4.722106E-01
  4.721092E-01
  4.756403E-01
  4.694880E-01
  4.704067E-01
  4.666048E-01
  4.719887E-01
  4.703683E-01
  4.735840E-01
  4.673233E-01
  4.672258E-01
  4.611444E-01
  4.636476E-01
  4.600357E-01
  4.631289E-01
  4.585638E-01
  4.610042E-01
  4.581026E-01
  4.651437E-01
  4.681211E-01
  4.786298E-01
  4.787174E-01
  4.798174E-01
  4.688527E-01
  4.645092E-01
  4.579204E-01
  4.653857E-01
  4.713234E-01
  4.847692E-01
  4.864417E-01
  4.885894E-01
  4.789883E-01
  4.754360E-01
  4.666244E-01
  4.677127E-01
  4.648331E-01
  4.718160E-01
  4.742434E-01
  4.823675E-01
  4.810887E-01
  4.805292E-01
  4.710695E-01
  4.684647E-01
  4.639737E-01
  4.689849E-01
  4.695666E-01
  4.748524E-01
  4.721181E-01
  4.733376E-01
  4.679420E-01
  4.687864E-01
  4.654507E-01
  4.699623E-01
  4.698434E-01
  4.747109E-01
  4.712645E-01
  4.712393E-01
  4.648131E-01
  4.655127E-01
  4.623700E-01
  4.660681E-01
  4.639277E-01
  4.672569E-01
  4.651815E-01
  4.698625E-01
  4.693524E-01
  4.740844E-01
  4.714341E-01
  4.729794E-01
  4.678552E-01
  4.685742E-01
  4.641861E-01
  4.665509E-01
  4.639806E-01
  4.674524E-01
  4.644367E-01
  4.657886E-01
  4.601056E-01
  4.599163E-01
  4.548442E-01
  4.571774E-01
  4.560125E-01
  4.632929E-01
  4.672193E-01
  4.772207E-01
  4.780246E-01
  4.787948E-01
  4.692175E-01
  4.659514E-01
  4.625215E-01
  4.719306E-01
  4.793234E-01
  4.902370E-01
  4.884230E-01
  4.859456E-01
  4.751691E-01
  4.718309E-01
  4.656681E-01
  4.676336E-01
  4.657021E-01
  4.639156E-01
  4.732428E-01
  4.828045E-01
  4.843025E-01
  4.807945E-01
  4.717424E-01
  4.661487E-01
  4.631536E-01
  4.664106E-01
  4.695323E-01
  4.737749E-01
  4.737527E-01
  4.735080E-01
  4.702149E-01
  4.691842E-01
  4.674872E-01
  4.692292E-01
  4.697910E-01
  4.719686E-01
  4.709938E-01
  4.708286E-01
  4.682271E-01
  4.677654E-01
  4.656797E-01
  4.657380E-01
  4.640308E-01
  4.647709E-01
  4.642473E-01
  4.660131E-01
  4.653240E-01
  4.656034E-01
  4.634051E-01
  4.638735E-01
  4.639524E-01
  4.671588E-01
  4.681010E-01
  4.694021E-01
  4.670398E-01
  4.658485E-01
  4.627071E-01
  4.615794E-01
  4.582369E-01
  4.566795E-01
  4.538127E-01
  4.546760E-01
  4.562785E-01
  4.626094E-01
  4.687136E-01
  4.761473E-01
  4.780869E-01
  4.769568E-01
  4.702060E-01
  4.657258E-01
  4.636647E-01
  4.695790E-01
  4.775629E-01
  4.867246E-01
  4.883464E-01
  4.848664E-01
  4.745154E-01
  4.651923E-01
  4.563678E-01
  4.540709E-01
  4.554051E-01
  4.635991E-01
  4.739456E-01
  4.805855E-01
  4.847706E-01
  4.783077E-01
  4.700931E-01
  4.596176E-01
  4.571724E-01
  4.577002E-01
  4.651333E-01
  4.702160E-01
  4.760903E-01
  4.752337E-01
  4.740272E-01
  4.682854E-01
  4.666369E-01
  4.649452E-01
  4.691560E-01
  4.712098E-01
  4.746361E-01
  4.723529E-01
  4.715078E-01
  4.680199E-01
  4.689735E-01
  4.677443E-01
  4.689656E-01
  4.658747E-01
  4.651419E-01
  4.622251E-01
  4.641211E-01
  4.644680E-01
  4.677791E-01
  4.665428E-01
  4.664197E-01
  4.624278E-01
  4.623200E-01
  4.613435E-01
  4.653108E-01
  4.665260E-01
  4.688639E-01
  4.652874E-01
  4.628745E-01
  4.579751E-01
  4.584823E-01
  4.586863E-01
  4.635385E-01
  4.658747E-01
  4.710385E-01
  4.722584E-01
  4.743656E-01
  4.704935E-01
  4.677787E-01
  4.632720E-01
  4.660012E-01
  4.704367E-01
  4.796234E-01
  4.828132E-01
  4.830618E-01
  4.750970E-01
  4.685088E-01
  4.604453E-01
  4.581276E-01
  4.556121E-01
  4.592069E-01
  4.596398E-01
  4.726738E-01
  4.766334E-01
  4.817105E-01
  4.725815E-01
  4.671504E-01
  4.560764E-01
  4.569157E-01
  4.557527E-01
  4.647715E-01
  4.668957E-01
  4.740966E-01
  4.709973E-01
  4.726702E-01
  4.664616E-01
  4.685356E-01
  4.654522E-01
  4.711916E-01
  4.701885E-01
  4.754882E-01
  4.719448E-01
  4.740990E-01
  4.681406E-01
  4.690968E-01
  4.630830E-01
  4.647262E-01
  4.599150E-01
  4.630349E-01
  4.597401E-01
  4.640305E-01
  4.612364E-01
  4.653584E-01
  4.620613E-01
  4.659682E-01
  4.630651E-01
  4.676752E-01
  4.651666E-01
  4.694480E-01
  4.657822E-01
  4.682102E-01
  4.624719E-01
  4.637650E-01
  4.591388E-01
  4.638401E-01
  4.633867E-01
  4.706924E-01
  4.697981E-01
  4.743218E-01
  4.699930E-01
  4.716145E-01
  4.651290E-01
  4.655071E-01
  4.596833E-01
  4.633795E-01
  4.629471E-01
  4.716385E-01
  4.726409E-01
  4.778616E-01
  4.718263E-01
  4.697992E-01
  4.593572E-01
  4.570643E-01
  4.508014E-01
  4.563370E-01
  4.647617E-01
  4.731375E-01
  4.730859E-01
  4.779121E-01
  4.690632E-01
  4.651325E-01
  4.535116E-01
  4.542127E-01
  4.518347E-01
  4.614881E-01
  4.639068E-01
  4.728607E-01
  4.699251E-01
  4.720367E-01
  4.644745E-01
  4.666416E-01
  4.637301E-01
  4.720705E-01
  4.726528E-01
  4.793825E-01
  4.741214E-01
  4.745813E-01
  4.661699E-01
  4.672962E-01
  4.615608E-01
  4.647757E-01
  4.596398E-01
  4.630472E-01
  4.595689E-01
  4.666047E-01
  4.668198E-01
  4.745677E-01
  4.707883E-01
  4.718028E-01
  4.629926E-01
  4.642172E-01
  4.608253E-01
  4.687357E-01
  4.684397E-01
  4.737512E-01
  4.673732E-01
  4.682774E-01
  4.630455E-01
  4.698177E-01
  4.704711E-01
  4.783776E-01
  4.743453E-01
  4.753853E-01
  4.667796E-01
  4.670315E-01
  4.599882E-01
  4.622571E-01
  4.576762E-01
  4.634254E-01
  4.626349E-01
  4.702178E-01
  4.675121E-01
  4.706176E-01
  4.641345E-01
  4.666107E-01
  4.620662E-01
  4.664054E-01
  4.622613E-01
  4.667801E-01
  4.635787E-01
  4.702681E-01
  4.700126E-01
  4.735589E-01
  4.671399E-01
  4.653865E-01
  4.578987E-01
  4.595339E-01
  4.577409E-01
  4.643467E-01
  4.646199E-01
  4.698859E-01
  4.664771E-01
  4.682366E-01
  4.638679E-01
  4.678673E-01
  4.675544E-01
  4.748909E-01
  4.750730E-01
  4.796247E-01
  4.747729E-01
  4.740702E-01
  4.655794E-01
  4.637539E-01
  4.568725E-01
  4.586085E-01
  4.560760E-01
  4.616480E-01
  4.616658E-01
  4.683670E-01
  4.680586E-01
  4.730712E-01
  4.700300E-01
  4.725044E-01
  4.685383E-01
  4.720081E-01
  4.697634E-01
  4.738364E-01
  4.700780E-01
  4.712068E-01
  4.650806E-01
  4.665459E-01
  4.641988E-01
  4.711550E-01
  4.726532E-01
  4.789620E-01
  4.751010E-01
  4.746201E-01
  4.665816E-01
  4.660585E-01
  4.606770E-01
  4.628644E-01
  4.590260E-01
  4.620184E-01
  4.591916E-01
  4.636049E-01
  4.620172E-01
  4.669633E-01
  4.650419E-01
  4.688977E-01
  4.652152E-01
  4.670542E-01
  4.622089E-01
  4.650471E-01
  4.670853E-01
  4.678500E-01
  4.677104E-01
  4.706956E-01
  4.690536E-01
  4.680582E-01
  4.633416E-01
  4.626539E-01
  4.615673E-01
  4.655563E-01
  4.674081E-01
  4.709172E-01
  4.691664E-01
  4.683394E-01
  4.646420E-01
  4.661024E-01
  4.681119E-01
  4.752753E-01
  4.788876E-01
  4.817409E-01
  4.770491E-01
  4.721914E-01
  4.643275E-01
  4.615633E-01
  4.588782E-01
  4.611260E-01
  4.613275E-01
  4.645553E-01
  4.655404E-01
  4.706642E-01
  4.737911E-01
  4.787849E-01
  4.778051E-01
  4.763340E-01
  4.707064E-01
  4.696585E-01
  4.689417E-01
  4.731096E-01
  4.735778E-01
  4.740243E-01
  4.691843E-01
  4.675160E-01
  4.659766E-01
  4.706703E-01
  4.735124E-01
  4.769767E-01
  4.737997E-01
  4.711238E-01
  4.658292E-01
  4.652075E-01
  4.632656E-01
  4.647593E-01
  4.636569E-01
  4.659212E-01
  4.656422E-01
  4.675025E-01
  4.649486E-01
  4.643675E-01
  4.620170E-01
  4.651135E-01
  4.673567E-01
  4.720614E-01
  4.713130E-01
  4.708678E-01
  4.617060E-01
  4.626574E-01
  4.652563E-01
  4.682521E-01
  4.705595E-01
  4.714910E-01
  4.714203E-01
  4.710105E-01
  4.710897E-01
  4.716322E-01
  4.720997E-01
  4.714484E-01
  4.695110E-01
  4.671156E-01
  4.660828E-01
  4.675433E-01
  4.714282E-01
  4.759881E-01
  4.791278E-01
  4.791274E-01
  4.758708E-01
  4.703830E-01
  4.646242E-01
  4.603254E-01
  4.588611E-01
  4.602969E-01
  4.637236E-01
  4.673348E-01
  4.699247E-01
  4.710663E-01
  4.713754E-01
  4.713926E-01
  4.717001E-01
  4.725565E-01
  4.742438E-01
  4.761981E-01
  4.773484E-01
  4.763395E-01
  4.730169E-01
  4.684063E-01
  4.645875E-01
  4.630671E-01
  4.642942E-01
  4.670626E-01
  4.696466E-01
  4.704961E-01
  4.696496E-01
  4.682319E-01
  4.677275E-01
  4.683378E-01
  4.693259E-01
  4.695263E-01
  4.688273E-01
  4.677392E-01
  4.670773E-01
  4.668604E-01
  4.669187E-01
  4.669633E-01
  4.672068E-01
  4.675195E-01
  4.675715E-01
  4.666274E-01
  4.647239E-01
  4.626115E-01
  4.620403E-01
  4.604462E-01
  4.632708E-01
  4.674006E-01
  4.723011E-01
  4.739780E-01
  4.741529E-01
  4.722496E-01
  4.720053E-01
  4.722222E-01
  4.741338E-01
  4.741307E-01
  4.729903E-01
  4.691173E-01
  4.664353E-01
  4.652946E-01
  4.686861E-01
  4.733845E-01
  4.782897E-01
  4.784782E-01
  4.751822E-01
  4.684242E-01
  4.635229E-01
  4.611036E-01
  4.636135E-01
  4.674745E-01
  4.720562E-01
  4.734990E-01
  4.737505E-01
  4.723200E-01
  4.725520E-01
  4.724904E-01
  4.731093E-01
  4.718307E-01
  4.712320E-01
  4.704824E-01
  4.718325E-01
  4.721959E-01
  4.719996E-01
  4.688390E-01
  4.659376E-01
  4.633226E-01
  4.640633E-01
  4.655070E-01
  4.677495E-01
  4.674961E-01
  4.671574E-01
  4.664375E-01
  4.683627E-01
  4.702392E-01
  4.722850E-01
  4.716885E-01
  4.714057E-01
  4.710889E-01
  4.730104E-01
  4.736738E-01
  4.732941E-01
  4.699343E-01
  4.675752E-01
  4.662885E-01
  4.680728E-01
  4.689190E-01
  4.686129E-01
  4.649798E-01
  4.567212E-01
  4.582417E-01
  4.616516E-01
  4.666972E-01
  4.711488E-01
  4.744144E-01
  4.752115E-01
  4.749092E-01
  4.739401E-01
  4.738470E-01
  4.735884E-01
  4.729208E-01
  4.704718E-01
  4.676685E-01
  4.653921E-01
  4.657788E-01
  4.681422E-01
  4.719149E-01
  4.743827E-01
  4.747780E-01
  4.720209E-01
  4.679148E-01
  4.635937E-01
  4.617861E-01
  4.629437E-01
  4.674940E-01
  4.726265E-01
  4.762820E-01
  4.758712E-01
  4.725257E-01
  4.676273E-01
  4.643930E-01
  4.635634E-01
  4.659942E-01
  4.697448E-01
  4.734987E-01
  4.743934E-01
  4.722804E-01
  4.673935E-01
  4.628390E-01
  4.600282E-01
  4.603737E-01
  4.620912E-01
  4.641983E-01
  4.648518E-01
  4.651064E-01
  4.654593E-01
  4.676540E-01
  4.706095E-01
  4.734998E-01
  4.739257E-01
  4.724018E-01
  4.696132E-01
  4.683340E-01
  4.688695E-01
  4.714429E-01
  4.737598E-01
  4.752103E-01
  4.745095E-01
  4.726102E-01
  4.691468E-01
  4.653227E-01
  4.610481E-01
  4.580879E-01
  4.597617E-01
  4.600833E-01
  4.613871E-01
  4.670949E-01
  4.702493E-01
  4.733101E-01
  4.712790E-01
  4.701799E-01
  4.675107E-01
  4.689868E-01
  4.694730E-01
  4.717682E-01
  4.697416E-01
  4.679427E-01
  4.634748E-01
  4.631844E-01
  4.638452E-01
  4.693131E-01
  4.725318E-01
  4.753203E-01
  4.719594E-01
  4.683978E-01
  4.630083E-01
  4.630192E-01
  4.647141E-01
  4.712110E-01
  4.750966E-01
  4.784019E-01
  4.758861E-01
  4.736190E-01
  4.691387E-01
  4.681747E-01
  4.659713E-01
  4.664525E-01
  4.648856E-01
  4.660847E-01
  4.654819E-01
  4.670296E-01
  4.654368E-01
  4.652318E-01
  4.626989E-01
  4.634389E-01
  4.632238E-01
  4.658888E-01
  4.658290E-01
  4.673248E-01
  4.666065E-01
  4.691610E-01
  4.701656E-01
  4.726093E-01
  4.704514E-01
  4.686842E-01
  4.650621E-01
  4.664894E-01
  4.687167E-01
  4.742480E-01
  4.758151E-01
  4.768824E-01
  4.738874E-01
  4.731847E-01
  4.708358E-01
  4.705966E-01
  4.668071E-01
  4.641724E-01
  4.581078E-01
  4.611499E-01
  4.621325E-01
  4.669898E-01
  4.682123E-01
  4.714969E-01
  4.697073E-01
  4.699839E-01
  4.668092E-01
  4.677210E-01
  4.660081E-01
  4.674754E-01
  4.648273E-01
  4.650166E-01
  4.624834E-01
  4.647710E-01
  4.653273E-01
  4.700354E-01
  4.711324E-01
  4.741843E-01
  4.717619E-01
  4.705344E-01
  4.648586E-01
  4.632744E-01
  4.610636E-01
  4.655117E-01
  4.686818E-01
  4.744307E-01
  4.735916E-01
  4.723693E-01
  4.658702E-01
  4.634617E-01
  4.604525E-01
  4.637162E-01
  4.652982E-01
  4.697008E-01
  4.685544E-01
  4.682258E-01
  4.633472E-01
  4.624747E-01
  4.602395E-01
  4.631496E-01
  4.634460E-01
  4.665898E-01
  4.656337E-01
  4.678062E-01
  4.671978E-01
  4.704691E-01
  4.700382E-01
  4.713484E-01
  4.672952E-01
  4.654501E-01
  4.609931E-01
  4.621691E-01
  4.629017E-01
  4.690304E-01
  4.722564E-01
  4.774509E-01
  4.766792E-01
  4.763300E-01
  4.704144E-01
  4.670198E-01
  4.610388E-01
  4.601706E-01
  4.646859E-01
  4.650796E-01
  4.643762E-01
  4.674529E-01
  4.680603E-01
  4.698602E-01
  4.672919E-01
  4.662442E-01
  4.631419E-01
  4.640164E-01
  4.636278E-01
  4.659230E-01
  4.648171E-01
  4.652308E-01
  4.630115E-01
  4.644930E-01
  4.654344E-01
  4.705514E-01
  4.733246E-01
  4.769104E-01
  4.749114E-01
  4.725726E-01
  4.664700E-01
  4.639445E-01
  4.615670E-01
  4.644634E-01
  4.662418E-01
  4.700607E-01
  4.696882E-01
  4.703873E-01
  4.681071E-01
  4.686310E-01
  4.667676E-01
  4.670508E-01
  4.643738E-01
  4.644373E-01
  4.629706E-01
  4.651448E-01
  4.652287E-01
  4.673916E-01
  4.662833E-01
  4.674151E-01
  4.664069E-01
  4.684844E-01
  4.681424E-01
  4.698804E-01
  4.684810E-01
  4.691739E-01
  4.669053E-01
  4.664775E-01
  4.628731E-01
  4.620490E-01
  4.604134E-01
  4.638242E-01
  4.665465E-01
  4.716474E-01
  4.721948E-01
  4.728409E-01
  4.696434E-01
  4.692537E-01
  4.673740E-01
  4.686817E-01
  4.671882E-01
  4.674125E-01
  4.662645E-01
  4.678821E-01
  4.672552E-01
  4.673159E-01
  4.670616E-01
  4.683772E-01
  4.685526E-01
  4.688574E-01
  4.673603E-01
  4.664032E-01
  4.644382E-01
  4.636319E-01
  4.624579E-01
  4.634091E-01
  4.648615E-01
  4.682733E-01
  4.707390E-01
  4.734751E-01
  4.745580E-01
  4.761065E-01
  4.757224E-01
  4.742837E-01
  4.693281E-01
  4.638836E-01
  4.584890E-01
  4.572733E-01
  4.586937E-01
  4.628545E-01
  4.651535E-01
  4.659411E-01
  4.639041E-01
  4.630104E-01
  4.630279E-01
  4.659437E-01
  4.684021E-01
  4.705455E-01
  4.696134E-01
  4.681216E-01
  4.655581E-01
  4.650066E-01
  4.648089E-01
  4.663721E-01
  4.670725E-01
  4.684157E-01
  4.683973E-01
  4.689324E-01
  4.679625E-01
  4.672646E-01
  4.650313E-01
  4.637157E-01
  4.621439E-01
  4.627399E-01
  4.634857E-01
  4.656562E-01
  4.666402E-01
  4.680254E-01
  4.678749E-01
  4.680421E-01
  4.663388E-01
  4.646877E-01
  4.619158E-01
  4.612315E-01
  4.615582E-01
  4.643680E-01
  4.754458E-01
  4.735444E-01
  4.706309E-01
  4.679351E-01
  4.671058E-01
  4.669753E-01
  4.673893E-01
  4.670383E-01
  4.666961E-01
  4.658394E-01
  4.653528E-01
  4.645538E-01
  4.644522E-01
  4.647097E-01
  4.663520E-01
  4.684746E-01
  4.713398E-01
  4.736624E-01
  4.758346E-01
  4.767291E-01
  4.765412E-01
  4.739658E-01
  4.698619E-01
  4.645870E-01
  4.605831E-01
  4.583287E-01
  4.586536E-01
  4.598816E-01
  4.617083E-01
  4.630260E-01
  4.649505E-01
  4.669844E-01
  4.693235E-01
  4.700905E-01
  4.694365E-01
  4.672853E-01
  4.659421E-01
  4.657344E-01
  4.671548E-01
  4.682427E-01
  4.688676E-01
  4.685100E-01
  4.688507E-01
  4.695565E-01
  4.706627E-01
  4.701228E-01
  4.680820E-01
  4.644811E-01
  4.615966E-01
  4.600267E-01
  4.611174E-01
  4.638971E-01
  4.681896E-01
  4.717065E-01
  4.734944E-01
  4.716920E-01
  4.673251E-01
  4.613395E-01
  4.568759E-01
  4.551497E-01
  4.576394E-01
  4.627958E-01
  4.692860E-01
  4.738159E-01
  4.773860E-01
  4.765775E-01
  4.729250E-01
  4.677923E-01
  4.654907E-01
  4.652568E-01
  4.675806E-01
  4.690924E-01
  4.700399E-01
  4.684472E-01
  4.663658E-01
  4.633474E-01
  4.624235E-01
  4.631102E-01
  4.668372E-01
  4.704156E-01
  4.733569E-01
  4.732288E-01
  4.726653E-01
  4.718074E-01
  4.727050E-01
  4.723392E-01
  4.703766E-01
  4.649583E-01
  4.596893E-01
  4.557721E-01
  4.560832E-01
  4.579979E-01
  4.607291E-01
  4.611750E-01
  4.614723E-01
  4.619554E-01
  4.654398E-01
  4.695924E-01
  4.737220E-01
  4.742248E-01
  4.724311E-01
  4.682693E-01
  4.653465E-01
  4.633448E-01
  4.639647E-01
  4.650632E-01
  4.674855E-01
  4.689263E-01
  4.701813E-01
  4.689694E-01
  4.667556E-01
  4.628122E-01
  4.603552E-01
  4.594528E-01
  4.623401E-01
  4.665498E-01
  4.714218E-01
  4.730132E-01
  4.719163E-01
  4.674640E-01
  4.631861E-01
  4.590004E-01
  4.569253E-01
  4.554574E-01
  4.566989E-01
  4.599171E-01
  4.665211E-01
  4.728620E-01
  4.831087E-01
  4.789047E-01
  4.738020E-01
  4.676107E-01
  4.651281E-01
  4.634173E-01
  4.645816E-01
  4.645805E-01
  4.657892E-01
  4.649071E-01
  4.650158E-01
  4.634824E-01
  4.639831E-01
  4.640058E-01
  4.664526E-01
  4.674820E-01
  4.692053E-01
  4.683422E-01
  4.685956E-01
  4.678271E-01
  4.692569E-01
  4.690554E-01
  4.691896E-01
  4.663632E-01
  4.645248E-01
  4.619172E-01
  4.621188E-01
  4.616999E-01
  4.630476E-01
  4.631852E-01
  4.658396E-01
  4.683045E-01
  4.726311E-01
  4.738701E-01
  4.737684E-01
  4.698444E-01
  4.671886E-01
  4.645058E-01
  4.650134E-01
  4.646955E-01
  4.658179E-01
  4.656560E-01
  4.679431E-01
  4.694369E-01
  4.716124E-01
  4.696696E-01
  4.664257E-01
  4.606388E-01
  4.579594E-01
  4.571533E-01
  4.612949E-01
  4.659433E-01
  4.719218E-01
  4.741059E-01
  4.743846E-01
  4.698890E-01
  4.650656E-01
  4.589223E-01
  4.564563E-01
  4.560154E-01
  4.609858E-01
  4.674591E-01
  4.762001E-01
  4.811569E-01
  4.779023E-01
  4.751051E-01
  4.726272E-01
  4.660380E-01
  4.643435E-01
  4.617996E-01
  4.643073E-01
  4.638310E-01
  4.658917E-01
  4.635149E-01
  4.637177E-01
  4.607778E-01
  4.623603E-01
  4.623802E-01
  4.668005E-01
  4.671756E-01
  4.684597E-01
  4.640357E-01
  4.626472E-01
  4.602145E-01
  4.641332E-01
  4.660518E-01
  4.697803E-01
  4.672374E-01
  4.662684E-01
  4.627239E-01
  4.646819E-01
  4.647442E-01
  4.676242E-01
  4.656760E-01
  4.665332E-01
  4.654762E-01
  4.699846E-01
  4.721432E-01
  4.762052E-01
  4.737814E-01
  4.717827E-01
  4.653082E-01
  4.630161E-01
  4.595158E-01
  4.616644E-01
  4.623737E-01
  4.672956E-01
  4.684342E-01
  4.710318E-01
  4.676288E-01
  4.653944E-01
  4.593949E-01
  4.583482E-01
  4.570529E-01
  4.620212E-01
  4.650362E-01
  4.703366E-01
  4.695786E-01
  4.696108E-01
  4.655908E-01
  4.660895E-01
  4.649225E-01
  4.676578E-01
  4.664654E-01
  4.681540E-01
  4.674428E-01
  4.719191E-01
  4.739806E-01
  4.759431E-01
  4.707590E-01
  4.709175E-01
  4.652230E-01
  4.660837E-01
  4.614410E-01
  4.630245E-01
  4.588883E-01
  4.611862E-01
  4.582310E-01
  4.620224E-01
  4.605469E-01
  4.654593E-01
  4.642867E-01
  4.682068E-01
  4.645309E-01
  4.652304E-01
  4.593103E-01
  4.603105E-01
  4.575690E-01
  4.630531E-01
  4.636782E-01
  4.697616E-01
  4.684004E-01
  4.719167E-01
  4.691553E-01
  4.724867E-01
  4.695663E-01
  4.721735E-01
  4.688929E-01
  4.727606E-01
  4.719182E-01
  4.769649E-01
  4.738112E-01
  4.736953E-01
  4.659366E-01
  4.650344E-01
  4.605561E-01
  4.640963E-01
  4.623780E-01
  4.665686E-01
  4.650823E-01
  4.703897E-01
  4.698518E-01
  4.736836E-01
  4.684237E-01
  4.666149E-01
  4.585663E-01
  4.586576E-01
  4.560096E-01
  4.617924E-01
  4.625042E-01
  4.686733E-01
  4.677300E-01
  4.718669E-01
  4.696102E-01
  4.733554E-01
  4.711223E-01
  4.747321E-01
  4.720287E-01
  4.752946E-01
  4.728151E-01
  4.765471E-01
  4.738180E-01
  4.666768E-01
  4.651985E-01
  4.694627E-01
  4.653228E-01
  4.675135E-01
  4.629058E-01
  4.655560E-01
  4.613055E-01
  4.638415E-01
  4.594836E-01
  4.625548E-01
  4.597092E-01
  4.650141E-01
  4.641912E-01
  4.699187E-01
  4.666773E-01
  4.676050E-01
  4.597996E-01
  4.597064E-01
  4.558798E-01
  4.625075E-01
  4.637862E-01
  4.707778E-01
  4.681943E-01
  4.710032E-01
  4.673094E-01
  4.719772E-01
  4.700848E-01
  4.739450E-01
  4.691306E-01
  4.708466E-01
  4.668095E-01
  4.713636E-01
  4.693883E-01
  4.732186E-01
  4.681504E-01
  4.686793E-01
  4.621467E-01
  4.636278E-01
  4.599865E-01
  4.652512E-01
  4.651196E-01
  4.723474E-01
  4.713770E-01
  4.748495E-01
  4.686195E-01
  4.679240E-01
  4.607459E-01
  4.624299E-01