# vtk DataFile Version 2.0
title
ASCII
DATASET STRUCTURED_GRID
DIMENSIONS   64   64    1
POINTS   4096  float
  0.000000E+00  0.000000E+00  0.000000E+00
  0.000000E+00  3.906250E-01  0.000000E+00
  0.000000E+00  7.812500E-01  0.000000E+00
  0.000000E+00  1.171875E+00  0.000000E+00
  0.000000E+00  1.562500E+00  0.000000E+00
  0.000000E+00  1.953125E+00  0.000000E+00
  0.000000E+00  2.343750E+00  0.000000E+00
  0.000000E+00  2.734375E+00  0.000000E+00
  0.000000E+00  3.125000E+00  0.000000E+00
  0.000000E+00  3.515625E+00  0.000000E+00
  0.000000E+00  3.906250E+00  0.000000E+00
  0.000000E+00  4.296875E+00  0.000000E+00
  0.000000E+00  4.687500E+00  0.000000E+00
  0.000000E+00  5.078125E+00  0.000000E+00
  0.000000E+00  5.468750E+00  0.000000E+00
  0.000000E+00  5.859375E+00  0.000000E+00
  0.000000E+00  6.250000E+00  0.000000E+00
  0.000000E+00  6.640625E+00  0.000000E+00
  0.000000E+00  7.031250E+00  0.000000E+00
  0.000000E+00  7.421875E+00  0.000000E+00
  0.000000E+00  7.812500E+00  0.000000E+00
  0.000000E+00  8.203125E+00  0.000000E+00
  0.000000E+00  8.593750E+00  0.000000E+00
  0.000000E+00  8.984375E+00  0.000000E+00
  0.000000E+00  9.375000E+00  0.000000E+00
  0.000000E+00  9.765625E+00  0.000000E+00
  0.000000E+00  1.015625E+01  0.000000E+00
  0.000000E+00  1.054688E+01  0.000000E+00
  0.000000E+00  1.093750E+01  0.000000E+00
  0.000000E+00  1.132812E+01  0.000000E+00
  0.000000E+00  1.171875E+01  0.000000E+00
  0.000000E+00  1.210938E+01  0.000000E+00
  0.000000E+00  1.250000E+01  0.000000E+00
  0.000000E+00  1.289062E+01  0.000000E+00
  0.000000E+00  1.328125E+01  0.000000E+00
  0.000000E+00  1.367188E+01  0.000000E+00
  0.000000E+00  1.406250E+01  0.000000E+00
  0.000000E+00  1.445312E+01  0.000000E+00
  0.000000E+00  1.484375E+01  0.000000E+00
  0.000000E+00  1.523438E+01  0.000000E+00
  0.000000E+00  1.562500E+01  0.000000E+00
  0.000000E+00  1.601562E+01  0.000000E+00
  0.000000E+00  1.640625E+01  0.000000E+00
  0.000000E+00  1.679688E+01  0.000000E+00
  0.000000E+00  1.718750E+01  0.000000E+00
  0.000000E+00  1.757812E+01  0.000000E+00
  0.000000E+00  1.796875E+01  0.000000E+00
  0.000000E+00  1.835938E+01  0.000000E+00
  0.000000E+00  1.875000E+01  0.000000E+00
  0.000000E+00  1.914062E+01  0.000000E+00
  0.000000E+00  1.953125E+01  0.000000E+00
  0.000000E+00  1.992188E+01  0.000000E+00
  0.000000E+00  2.031250E+01  0.000000E+00
  0.000000E+00  2.070312E+01  0.000000E+00
  0.000000E+00  2.109375E+01  0.000000E+00
  0.000000E+00  2.148438E+01  0.000000E+00
  0.000000E+00  2.187500E+01  0.000000E+00
  0.000000E+00  2.226562E+01  0.000000E+00
  0.000000E+00  2.265625E+01  0.000000E+00
  0.000000E+00  2.304688E+01  0.000000E+00
  0.000000E+00  2.343750E+01  0.000000E+00
  0.000000E+00  2.382812E+01  0.000000E+00
  0.000000E+00  2.421875E+01  0.000000E+00
  0.000000E+00  2.460938E+01  0.000000E+00
  3.906250E-01  0.000000E+00  0.000000E+00
  3.906250E-01  3.906250E-01  0.000000E+00
  3.906250E-01  7.812500E-01  0.000000E+00
  3.906250E-01  1.171875E+00  0.000000E+00
  3.906250E-01  1.562500E+00  0.000000E+00
  3.906250E-01  1.953125E+00  0.000000E+00
  3.906250E-01  2.343750E+00  0.000000E+00
  3.906250E-01  2.734375E+00  0.000000E+00
  3.906250E-01  3.125000E+00  0.000000E+00
  3.906250E-01  3.515625E+00  0.000000E+00
  3.906250E-01  3.906250E+00  0.000000E+00
  3.906250E-01  4.296875E+00  0.000000E+00
  3.906250E-01  4.687500E+00  0.000000E+00
  3.906250E-01  5.078125E+00  0.000000E+00
  3.906250E-01  5.468750E+00  0.000000E+00
  3.906250E-01  5.859375E+00  0.000000E+00
  3.906250E-01  6.250000E+00  0.000000E+00
  3.906250E-01  6.640625E+00  0.000000E+00
  3.906250E-01  7.031250E+00  0.000000E+00
  3.906250E-01  7.421875E+00  0.000000E+00
  3.906250E-01  7.812500E+00  0.000000E+00
  3.906250E-01  8.203125E+00  0.000000E+00
  3.906250E-01  8.593750E+00  0.000000E+00
  3.906250E-01  8.984375E+00  0.000000E+00
  3.906250E-01  9.375000E+00  0.000000E+00
  3.906250E-01  9.765625E+00  0.000000E+00
  3.906250E-01  1.015625E+01  0.000000E+00
  3.906250E-01  1.054688E+01  0.000000E+00
  3.906250E-01  1.093750E+01  0.000000E+00
  3.906250E-01  1.132812E+01  0.000000E+00
  3.906250E-01  1.171875E+01  0.000000E+00
  3.906250E-01  1.210938E+01  0.000000E+00
  3.906250E-01  1.250000E+01  0.000000E+00
  3.906250E-01  1.289062E+01  0.000000E+00
  3.906250E-01  1.328125E+01  0.000000E+00
  3.906250E-01  1.367188E+01  0.000000E+00
  3.906250E-01  1.406250E+01  0.000000E+00
  3.906250E-01  1.445312E+01  0.000000E+00
  3.906250E-01  1.484375E+01  0.000000E+00
  3.906250E-01  1.523438E+01  0.000000E+00
  3.906250E-01  1.562500E+01  0.000000E+00
  3.906250E-01  1.601562E+01  0.000000E+00
  3.906250E-01  1.640625E+01  0.000000E+00
  3.906250E-01  1.679688E+01  0.000000E+00
  3.906250E-01  1.718750E+01  0.000000E+00
  3.906250E-01  1.757812E+01  0.000000E+00
  3.906250E-01  1.796875E+01  0.000000E+00
  3.906250E-01  1.835938E+01  0.000000E+00
  3.906250E-01  1.875000E+01  0.000000E+00
  3.906250E-01  1.914062E+01  0.000000E+00
  3.906250E-01  1.953125E+01  0.000000E+00
  3.906250E-01  1.992188E+01  0.000000E+00
  3.906250E-01  2.031250E+01  0.000000E+00
  3.906250E-01  2.070312E+01  0.000000E+00
  3.906250E-01  2.109375E+01  0.000000E+00
  3.906250E-01  2.148438E+01  0.000000E+00
  3.906250E-01  2.187500E+01  0.000000E+00
  3.906250E-01  2.226562E+01  0.000000E+00
  3.906250E-01  2.265625E+01  0.000000E+00
  3.906250E-01  2.304688E+01  0.000000E+00
  3.906250E-01  2.343750E+01  0.000000E+00
  3.906250E-01  2.382812E+01  0.000000E+00
  3.906250E-01  2.421875E+01  0.000000E+00
  3.906250E-01  2.460938E+01  0.000000E+00
  7.812500E-01  0.000000E+00  0.000000E+00
  7.812500E-01  3.906250E-01  0.000000E+00
  7.812500E-01  7.812500E-01  0.000000E+00
  7.812500E-01  1.171875E+00  0.000000E+00
  7.812500E-01  1.562500E+00  0.000000E+00
  7.812500E-01  1.953125E+00  0.000000E+00
  7.812500E-01  2.343750E+00  0.000000E+00
  7.812500E-01  2.734375E+00  0.000000E+00
  7.812500E-01  3.125000E+00  0.000000E+00
  7.812500E-01  3.515625E+00  0.000000E+00
  7.812500E-01  3.906250E+00  0.000000E+00
  7.812500E-01  4.296875E+00  0.000000E+00
  7.812500E-01  4.687500E+00  0.000000E+00
  7.812500E-01  5.078125E+00  0.000000E+00
  7.812500E-01  5.468750E+00  0.000000E+00
  7.812500E-01  5.859375E+00  0.000000E+00
  7.812500E-01  6.250000E+00  0.000000E+00
  7.812500E-01  6.640625E+00  0.000000E+00
  7.812500E-01  7.031250E+00  0.000000E+00
  7.812500E-01  7.421875E+00  0.000000E+00
  7.812500E-01  7.812500E+00  0.000000E+00
  7.812500E-01  8.203125E+00  0.000000E+00
  7.812500E-01  8.593750E+00  0.000000E+00
  7.812500E-01  8.984375E+00  0.000000E+00
  7.812500E-01  9.375000E+00  0.000000E+00
  7.812500E-01  9.765625E+00  0.000000E+00
  7.812500E-01  1.015625E+01  0.000000E+00
  7.812500E-01  1.054688E+01  0.000000E+00
  7.812500E-01  1.093750E+01  0.000000E+00
  7.812500E-01  1.132812E+01  0.000000E+00
  7.812500E-01  1.171875E+01  0.000000E+00
  7.812500E-01  1.210938E+01  0.000000E+00
  7.812500E-01  1.250000E+01  0.000000E+00
  7.812500E-01  1.289062E+01  0.000000E+00
  7.812500E-01  1.328125E+01  0.000000E+00
  7.812500E-01  1.367188E+01  0.000000E+00
  7.812500E-01  1.406250E+01  0.000000E+00
  7.812500E-01  1.445312E+01  0.000000E+00
  7.812500E-01  1.484375E+01  0.000000E+00
  7.812500E-01  1.523438E+01  0.000000E+00
  7.812500E-01  1.562500E+01  0.000000E+00
  7.812500E-01  1.601562E+01  0.000000E+00
  7.812500E-01  1.640625E+01  0.000000E+00
  7.812500E-01  1.679688E+01  0.000000E+00
  7.812500E-01  1.718750E+01  0.000000E+00
  7.812500E-01  1.757812E+01  0.000000E+00
  7.812500E-01  1.796875E+01  0.000000E+00
  7.812500E-01  1.835938E+01  0.000000E+00
  7.812500E-01  1.875000E+01  0.000000E+00
  7.812500E-01  1.914062E+01  0.000000E+00
  7.812500E-01  1.953125E+01  0.000000E+00
  7.812500E-01  1.992188E+01  0.000000E+00
  7.812500E-01  2.031250E+01  0.000000E+00
  7.812500E-01  2.070312E+01  0.000000E+00
  7.812500E-01  2.109375E+01  0.000000E+00
  7.812500E-01  2.148438E+01  0.000000E+00
  7.812500E-01  2.187500E+01  0.000000E+00
  7.812500E-01  2.226562E+01  0.000000E+00
  7.812500E-01  2.265625E+01  0.000000E+00
  7.812500E-01  2.304688E+01  0.000000E+00
  7.812500E-01  2.343750E+01  0.000000E+00
  7.812500E-01  2.382812E+01  0.000000E+00
  7.812500E-01  2.421875E+01  0.000000E+00
  7.812500E-01  2.460938E+01  0.000000E+00
  1.171875E+00  0.000000E+00  0.000000E+00
  1.171875E+00  3.906250E-01  0.000000E+00
  1.171875E+00  7.812500E-01  0.000000E+00
  1.171875E+00  1.171875E+00  0.000000E+00
  1.171875E+00  1.562500E+00  0.000000E+00
  1.171875E+00  1.953125E+00  0.000000E+00
  1.171875E+00  2.343750E+00  0.000000E+00
  1.171875E+00  2.734375E+00  0.000000E+00
  1.171875E+00  3.125000E+00  0.000000E+00
  1.171875E+00  3.515625E+00  0.000000E+00
  1.171875E+00  3.906250E+00  0.000000E+00
  1.171875E+00  4.296875E+00  0.000000E+00
  1.171875E+00  4.687500E+00  0.000000E+00
  1.171875E+00  5.078125E+00  0.000000E+00
  1.171875E+00  5.468750E+00  0.000000E+00
  1.171875E+00  5.859375E+00  0.000000E+00
  1.171875E+00  6.250000E+00  0.000000E+00
  1.171875E+00  6.640625E+00  0.000000E+00
  1.171875E+00  7.031250E+00  0.000000E+00
  1.171875E+00  7.421875E+00  0.000000E+00
  1.171875E+00  7.812500E+00  0.000000E+00
  1.171875E+00  8.203125E+00  0.000000E+00
  1.171875E+00  8.593750E+00  0.000000E+00
  1.171875E+00  8.984375E+00  0.000000E+00
  1.171875E+00  9.375000E+00  0.000000E+00
  1.171875E+00  9.765625E+00  0.000000E+00
  1.171875E+00  1.015625E+01  0.000000E+00
  1.171875E+00  1.054688E+01  0.000000E+00
  1.171875E+00  1.093750E+01  0.000000E+00
  1.171875E+00  1.132812E+01  0.000000E+00
  1.171875E+00  1.171875E+01  0.000000E+00
  1.171875E+00  1.210938E+01  0.000000E+00
  1.171875E+00  1.250000E+01  0.000000E+00
  1.171875E+00  1.289062E+01  0.000000E+00
  1.171875E+00  1.328125E+01  0.000000E+00
  1.171875E+00  1.367188E+01  0.000000E+00
  1.171875E+00  1.406250E+01  0.000000E+00
  1.171875E+00  1.445312E+01  0.000000E+00
[...]
POINT_DATA   4096
SCALARS CON  float  1
LOOKUP_TABLE default
  4.713980E-01
  4.737969E-01
  4.823631E-01
  4.777427E-01
  4.778862E-01
  4.689181E-01
  4.712696E-01
  4.688842E-01
  4.768397E-01
  4.748076E-01
  4.777905E-01
  4.691743E-01
  4.687112E-01
  4.621683E-01
  4.677393E-01
  4.675191E-01
  4.761095E-01
  4.740696E-01
  4.775608E-01
  4.701994E-01
  4.706998E-01
  4.631124E-01
  4.645842E-01
  4.578784E-01
  4.602374E-01
  4.558884E-01
  4.628324E-01
  4.639803E-01
  4.742657E-01
  4.737784E-01
  4.780261E-01
  4.708500E-01
  4.721908E-01
  4.672900E-01
  4.732700E-01
  4.710125E-01
  4.752032E-01
  4.680520E-01
  4.679694E-01
  4.599636E-01
  4.621167E-01
  4.570581E-01
  4.605284E-01
  4.549812E-01
  4.581345E-01
  4.551164E-01
  4.645082E-01
  4.690643E-01
  4.824406E-01
  4.824886E-01
  4.833444E-01
  4.694635E-01
  4.637801E-01
  4.554652E-01
  4.644453E-01
  4.722771E-01
  4.901599E-01
  4.938879E-01
  4.970841E-01
  4.840336E-01
  4.770542E-01
  4.638716E-01
  4.642214E-01
  4.615652E-01
  4.723967E-01
  4.765968E-01
  4.865444E-01
  4.845711E-01
  4.836075E-01
  4.722152E-01
  4.689498E-01
  4.632098E-01
  4.691402E-01
  4.704582E-01
  4.777745E-01
  4.748940E-01
  4.758108E-01
  4.683682E-01
  4.688375E-01
  4.648937E-01
  4.704192E-01
  4.699292E-01
  4.751496E-01
  4.707295E-01
  4.710382E-01
  4.638993E-01
  4.649639E-01
  4.609467E-01
  4.650609E-01
  4.625438E-01
  4.669747E-01
  4.649912E-01
  4.709521E-01
  4.705912E-01
  4.766099E-01
  4.737002E-01
  4.753949E-01
  4.684746E-01
  4.683864E-01
  4.626510E-01
  4.657526E-01
  4.632483E-01
  4.676587E-01
  4.637110E-01
  4.647312E-01
  4.573987E-01
  4.568123E-01
  4.505455E-01
  4.535025E-01
  4.528872E-01
  4.628171E-01
  4.684484E-01
  4.804173E-01
  4.804248E-01
  4.803650E-01
  4.686199E-01
  4.651249E-01
  4.615061E-01
  4.731438E-01
  4.827083E-01
  4.972209E-01
  4.964996E-01
  4.937874E-01
  4.791845E-01
  4.723825E-01
  4.626382E-01
  4.643440E-01
  4.631890E-01
  4.634345E-01
  4.758030E-01
  4.874132E-01
  4.889255E-01
  4.840113E-01
  4.727320E-01
  4.654114E-01
  4.615385E-01
  4.653190E-01
  4.697314E-01
  4.755022E-01
  4.759864E-01
  4.752864E-01
  4.708295E-01
  4.690521E-01
  4.670015E-01
  4.688313E-01
  4.692582E-01
  4.713906E-01
  4.703618E-01
  4.705444E-01
  4.681544E-01
  4.677692E-01
  4.652268E-01
  4.648774E-01
  4.628868E-01
  4.639735E-01
  4.639602E-01
  4.663789E-01
  4.658977E-01
  4.662128E-01
  4.636153E-01
  4.636591E-01
  4.631169E-01
  4.661095E-01
  4.671540E-01
  4.690697E-01
  4.670014E-01
  4.655952E-01
  4.613684E-01
  4.590921E-01
  4.548001E-01
  4.530154E-01
  4.502070E-01
  4.516241E-01
  4.541105E-01
  4.620651E-01
  4.698796E-01
  4.786199E-01
  4.804222E-01
  4.780829E-01
  4.695081E-01
  4.638992E-01
  4.618032E-01
  4.694369E-01
  4.803809E-01
  4.929760E-01
  4.964033E-01
  4.921415E-01
  4.782910E-01
  4.647435E-01
  4.525801E-01
  4.493368E-01
  4.519362E-01
  4.636674E-01
  4.768378E-01
  4.842773E-01
  4.889318E-01
  4.804959E-01
  4.705521E-01
  4.572051E-01
  4.537091E-01
  4.536856E-01
  4.633023E-01
  4.703386E-01
  4.785018E-01
  4.771226E-01
  4.750945E-01
  4.672832E-01
  4.653647E-01
  4.631964E-01
  4.684459E-01
  4.705787E-01
  4.750959E-01
  4.727008E-01
  4.725741E-01
  4.683975E-01
  4.694118E-01
  4.670084E-01
  4.681523E-01
  4.641507E-01
  4.639151E-01
  4.608336E-01
  4.639073E-01
  4.643663E-01
  4.684114E-01
  4.661060E-01
  4.653830E-01
  4.597682E-01
  4.598220E-01
  4.589056E-01
  4.644590E-01
  4.658929E-01
  4.687665E-01
  4.640751E-01
  4.614485E-01
  4.554072E-01
  4.560969E-01
  4.559656E-01
  4.623333E-01
  4.657803E-01
  4.729728E-01
  4.740179E-01
  4.755868E-01
  4.693792E-01
  4.658134E-01
  4.605352E-01
  4.646952E-01
  4.703512E-01
  4.821945E-01
  4.865817E-01
  4.877967E-01
  4.779195E-01
  4.692152E-01
  4.579296E-01
  4.545769E-01
  4.516733E-01
  4.573987E-01
  4.586323E-01
  4.751352E-01
  4.796897E-01
  4.857299E-01
  4.739425E-01
  4.669484E-01
  4.525638E-01
  4.530453E-01
  4.511030E-01
  4.625200E-01
  4.656475E-01
  4.752463E-01
  4.713712E-01
  4.732520E-01
  4.650955E-01
  4.676164E-01
  4.637366E-01
  4.711831E-01
  4.702222E-01
  4.774063E-01
  4.733138E-01
  4.762870E-01
  4.686771E-01
  4.696545E-01
  4.616905E-01
  4.635515E-01
  4.574814E-01
  4.617433E-01
  4.579314E-01
  4.635392E-01
  4.598071E-01
  4.646290E-01
  4.600251E-01
  4.647742E-01
  4.611872E-01
  4.674192E-01
  4.646845E-01
  4.703346E-01
  4.654676E-01
  4.681772E-01
  4.608133E-01
  4.628727E-01
  4.575172E-01
  4.635210E-01
  4.623859E-01
  4.710908E-01
  4.699896E-01
  4.763355E-01
  4.712635E-01
  4.730596E-01
  4.639839E-01
  4.636736E-01
  4.559642E-01
  4.607647E-01
  4.605727E-01
  4.720729E-01
  4.738027E-01
  4.806811E-01
  4.727747E-01
  4.696187E-01
  4.558993E-01
  4.531096E-01
  4.459331E-01
  4.538816E-01
  4.645331E-01
  4.752601E-01
  4.748492E-01
  4.805021E-01
  4.693715E-01
  4.644540E-01
  4.496435E-01
  4.498416E-01
  4.464349E-01
  4.586735E-01
  4.625284E-01
  4.744177E-01
  4.707660E-01
  4.728335E-01
  4.628358E-01
  4.653449E-01
  4.619142E-01
  4.726848E-01
  4.738472E-01
  4.826495E-01
  4.763343E-01
  4.769575E-01
  4.663062E-01
  4.673939E-01
  4.598404E-01
  4.634638E-01
  4.569078E-01
  4.612796E-01
  4.572355E-01
  4.661121E-01
  4.661382E-01
  4.753683E-01
  4.704573E-01
  4.720337E-01
  4.617640E-01
  4.639618E-01
  4.599597E-01
  4.694977E-01
  4.685986E-01
  4.750799E-01
  4.676803E-01
  4.696512E-01
  4.633926E-01
  4.710427E-01
  4.705290E-01
  4.796887E-01
  4.752161E-01
  4.776931E-01
  4.675176E-01
  4.672619E-01
  4.574018E-01
  4.595922E-01
  4.540491E-01
  4.616737E-01
  4.609585E-01
  4.703751E-01
  4.668791E-01
  4.705728E-01
  4.620297E-01
  4.642952E-01
  4.578800E-01
  4.631976E-01
  4.589375E-01
  4.659574E-01
  4.627801E-01
  4.714619E-01
  4.713799E-01
  4.755138E-01
  4.673143E-01
  4.644785E-01
  4.547502E-01
  4.562909E-01
  4.542843E-01
  4.628394E-01
  4.639638E-01
  4.708261E-01
  4.667350E-01
  4.684239E-01
  4.625894E-01
  4.669762E-01
  4.666575E-01
  4.761134E-01
  4.772750E-01
  4.834049E-01
  4.774798E-01
  4.760008E-01
  4.651515E-01
  4.626930E-01
  4.544798E-01
  4.566717E-01
  4.537040E-01
  4.604621E-01
  4.605174E-01
  4.683920E-01
  4.675874E-01
  4.732149E-01
  4.696353E-01
  4.733092E-01
  4.695306E-01
  4.744260E-01
  4.718005E-01
  4.761762E-01
  4.709345E-01
  4.719175E-01
  4.648308E-01
  4.673268E-01
  4.650747E-01
  4.732881E-01
  4.742537E-01
  4.810333E-01
  4.762846E-01
  4.762524E-01
  4.670623E-01
  4.662649E-01
  4.590566E-01
  4.609215E-01
  4.560027E-01
  4.597428E-01
  4.567272E-01
  4.624005E-01
  4.607274E-01
  4.666128E-01
  4.638080E-01
  4.675953E-01
  4.624045E-01
  4.644091E-01
  4.591492E-01
  4.635610E-01
  4.674437E-01
  4.683913E-01
  4.682486E-01
  4.712589E-01
  4.691985E-01
  4.674449E-01
  4.616154E-01
  4.602959E-01
  4.594267E-01
  4.647641E-01
  4.681890E-01
  4.727136E-01
  4.705806E-01
  4.685355E-01
  4.634673E-01
  4.645574E-01
  4.673724E-01
  4.764443E-01
  4.818541E-01
  4.855056E-01
  4.798477E-01
  4.730765E-01
  4.632105E-01
  4.593909E-01
  4.564266E-01
  4.590255E-01
  4.596620E-01
  4.635761E-01
  4.652989E-01
  4.713416E-01
  4.750884E-01
  4.804878E-01
  4.794894E-01
  4.779865E-01
  4.721900E-01
  4.711326E-01
  4.703042E-01
  4.744567E-01
  4.747147E-01
  4.750614E-01
  4.701058E-01
  4.685979E-01
  4.671535E-01
  4.720193E-01
  4.748964E-01
  4.786101E-01
  4.755300E-01
  4.726657E-01
  4.663634E-01
  4.644373E-01
  4.613847E-01
  4.627710E-01
  4.622174E-01
  4.652389E-01
  4.651061E-01
  4.667013E-01
  4.636217E-01
  4.628443E-01
  4.604430E-01
  4.637518E-01
  4.661744E-01
  4.712973E-01
  4.709589E-01
  4.710129E-01
  4.611179E-01
  4.620014E-01
  4.655836E-01
  4.686164E-01
  4.714512E-01
  4.716777E-01
  4.717106E-01
  4.709040E-01
  4.719176E-01
  4.727096E-01
  4.739794E-01
  4.726579E-01
  4.703517E-01
  4.665374E-01
  4.652042E-01
  4.661774E-01
  4.713274E-01
  4.770398E-01
  4.821890E-01
  4.822986E-01
  4.784691E-01
  4.705045E-01
  4.631698E-01
  4.573212E-01
  4.562241E-01
  4.580171E-01
  4.631428E-01
  4.677104E-01
  4.717643E-01
  4.727686E-01
  4.730541E-01
  4.719555E-01
  4.724495E-01
  4.733911E-01
  4.764781E-01
  4.787867E-01
  4.804614E-01
  4.783549E-01
  4.743399E-01
  4.681689E-01
  4.640231E-01
  4.619147E-01
  4.639610E-01
  4.670091E-01
  4.707233E-01
  4.716205E-01
  4.713529E-01
  4.693125E-01
  4.687606E-01
  4.683851E-01
  4.694120E-01
  4.690518E-01
  4.687122E-01
  4.669169E-01
  4.662050E-01
  4.652783E-01
  4.660961E-01
  4.666443E-01
  4.683260E-01
  4.687021E-01
  4.689417E-01
  4.668512E-01
  4.646217E-01
  4.616277E-01
  4.614502E-01
  4.588771E-01
  4.624818E-01
  4.668912E-01
  4.734210E-01
  4.752432E-01
  4.761072E-01
  4.734333E-01
  4.737313E-01
  4.737204E-01
  4.765767E-01
  4.758541E-01
  4.743631E-01
  4.685535E-01
  4.653016E-01
  4.633259E-01
  4.681188E-01
  4.738800E-01
  4.809005E-01
  4.809693E-01
  4.772219E-01
  4.679752E-01
  4.619054E-01
  4.581695E-01
  4.615943E-01
  4.660306E-01
  4.726354E-01
  4.748668E-01
  4.766152E-01
  4.748971E-01
  4.753450E-01
  4.739911E-01
  4.744743E-01
  4.722111E-01
  4.720660E-01
  4.708022E-01
  4.728239E-01
  4.726970E-01
  4.730171E-01
  4.689710E-01
  4.660145E-01
  4.620705E-01
  4.627937E-01
  4.636461E-01
  4.671464E-01
  4.675065E-01
  4.687890E-01
  4.678102E-01
  4.697282E-01
  4.701181E-01
  4.722706E-01
  4.714488E-01
  4.724376E-01
  4.718572E-01
  4.739494E-01
  4.733853E-01
  4.733675E-01
  4.699768E-01
  4.691114E-01
  4.679700E-01
  4.704501E-01
  4.702824E-01
  4.697459E-01
  4.646321E-01
  4.540942E-01
  4.554852E-01
  4.602329E-01
  4.662671E-01
  4.724479E-01
  4.763183E-01
  4.780488E-01
  4.775956E-01
  4.769863E-01
  4.761583E-01
  4.755377E-01
  4.734752E-01
  4.703927E-01
  4.664335E-01
  4.641387E-01
  4.642199E-01
  4.675950E-01
  4.720934E-01
  4.760436E-01
  4.764340E-01
  4.733498E-01
  4.674269E-01
  4.621407E-01
  4.593857E-01
  4.613797E-01
  4.669238E-01
  4.743163E-01
  4.792971E-01
  4.800368E-01
  4.757119E-01
  4.695385E-01
  4.641285E-01
  4.626820E-01
  4.648993E-01
  4.699862E-01
  4.743468E-01
  4.760557E-01
  4.733063E-01
  4.680524E-01
  4.621095E-01
  4.586164E-01
  4.577409E-01
  4.595236E-01
  4.616521E-01
  4.636755E-01
  4.647310E-01
  4.663850E-01
  4.686167E-01
  4.719310E-01
  4.742652E-01
  4.749995E-01
  4.731093E-01
  4.705794E-01
  4.685446E-01
  4.691008E-01
  4.714722E-01
  4.751772E-01
  4.777310E-01
  4.785351E-01
  4.762999E-01
  4.720926E-01
  4.660758E-01
  4.603474E-01
  4.556662E-01
  4.571403E-01
  4.570781E-01
  4.589564E-01
  4.658602E-01
  4.707471E-01
  4.750591E-01
  4.736744E-01
  4.723410E-01
  4.693066E-01
  4.703014E-01
  4.705392E-01
  4.722691E-01
  4.695673E-01
  4.667885E-01
  4.617379E-01
  4.612764E-01
  4.626651E-01
  4.691988E-01
  4.735830E-01
  4.766455E-01
  4.727590E-01
  4.679412E-01
  4.616636E-01
  4.613984E-01
  4.639040E-01
  4.716946E-01
  4.772054E-01
  4.815690E-01
  4.794383E-01
  4.764401E-01
  4.707301E-01
  4.682360E-01
  4.650331E-01
  4.649316E-01
  4.634634E-01
  4.648690E-01
  4.647452E-01
  4.666145E-01
  4.654059E-01
  4.651057E-01
  4.621898E-01
  4.620246E-01
  4.611220E-01
  4.634796E-01
  4.641063E-01
  4.667141E-01
  4.672326E-01
  4.701764E-01
  4.709075E-01
  4.725478E-01
  4.700905E-01
  4.685071E-01
  4.656374E-01
  4.675946E-01
  4.703033E-01
  4.761204E-01
  4.782899E-01
  4.797868E-01
  4.769995E-01
  4.757245E-01
  4.724667E-01
  4.709413E-01
  4.660530E-01
  4.622726E-01
  4.549422E-01
  4.584714E-01
  4.600719E-01
  4.660942E-01
  4.681451E-01
  4.723956E-01
  4.710217E-01
  4.717693E-01
  4.683391E-01
  4.688136E-01
  4.659651E-01
  4.666055E-01
  4.631488E-01
  4.632826E-01
  4.607220E-01
  4.635575E-01
  4.646394E-01
  4.704506E-01
  4.722721E-01
  4.758089E-01
  4.727066E-01
  4.705603E-01
  4.637193E-01
  4.619152E-01
  4.600089E-01
  4.657810E-01
  4.702484E-01
  4.772651E-01
  4.763545E-01
  4.741428E-01
  4.655392E-01
  4.614986E-01
  4.575373E-01
  4.613914E-01
  4.640320E-01
  4.697783E-01
  4.690018E-01
  4.686148E-01
  4.629173E-01
  4.614804E-01
  4.585545E-01
  4.614311E-01
  4.617956E-01
  4.656719E-01
  4.652557E-01
  4.681387E-01
  4.676110E-01
  4.710037E-01
  4.702384E-01
  4.715403E-01
  4.671959E-01
  4.653699E-01
  4.606246E-01
  4.620293E-01
  4.631416E-01
  4.705137E-01
  4.748607E-01
  4.810484E-01
  4.799501E-01
  4.786115E-01
  4.708764E-01
  4.660586E-01
  4.587428E-01
  4.573421E-01
  4.637264E-01
  4.641210E-01
  4.628981E-01
  4.665173E-01
  4.672651E-01
  4.699367E-01
  4.673312E-01
  4.666557E-01
  4.630211E-01
  4.639925E-01
  4.630010E-01
  4.653502E-01
  4.635224E-01
  4.638946E-01
  4.611573E-01
  4.633173E-01
  4.648912E-01
  4.717569E-01
  4.753943E-01
  4.797027E-01
  4.766163E-01
  4.732027E-01
  4.654165E-01
  4.626162E-01
  4.601041E-01
  4.640677E-01
  4.662641E-01
  4.708588E-01
  4.700527E-01
  4.705826E-01
  4.672259E-01
  4.674398E-01
  4.648643E-01
  4.655056E-01
  4.627886E-01
  4.635907E-01
  4.620623E-01
  4.647116E-01
  4.644856E-01
  4.670524E-01
  4.657357E-01
  4.674373E-01
  4.663539E-01
  4.690838E-01
  4.687103E-01
  4.710563E-01
  4.693298E-01
  4.699977E-01
  4.666392E-01
  4.657685E-01
  4.613860E-01
  4.610454E-01
  4.596706E-01
  4.642425E-01
  4.673928E-01
  4.733610E-01
  4.735788E-01
  4.739879E-01
  4.694323E-01
  4.684562E-01
  4.658138E-01
  4.676362E-01
  4.662005E-01
  4.669727E-01
  4.664045E-01
  4.687523E-01
  4.675411E-01
  4.677166E-01
  4.664839E-01
  4.680535E-01
  4.679521E-01
  4.692531E-01
  4.675310E-01
  4.667407E-01
  4.634844E-01
  4.624229E-01
  4.604668E-01
  4.621092E-01
  4.635579E-01
  4.681584E-01
  4.711207E-01
  4.756406E-01
  4.774082E-01
  4.799019E-01
  4.783229E-01
  4.757982E-01
  4.685894E-01
  4.624117E-01
  4.560914E-01
  4.555737E-01
  4.570146E-01
  4.621200E-01
  4.640235E-01
  4.649534E-01
  4.618076E-01
  4.609672E-01
  4.606607E-01
  4.649844E-01
  4.682823E-01
  4.720153E-01
  4.708436E-01
  4.691801E-01
  4.649815E-01
  4.640133E-01
  4.631745E-01
  4.659650E-01
  4.674249E-01
  4.704030E-01
  4.703485E-01
  4.710256E-01
  4.686955E-01
  4.676370E-01
  4.644030E-01
  4.634390E-01
  4.613633E-01
  4.623649E-01
  4.624609E-01
  4.650910E-01
  4.657987E-01
  4.680233E-01
  4.674893E-01
  4.677776E-01
  4.648226E-01
  4.629785E-01
  4.595401E-01
  4.597850E-01
  4.604027E-01
  4.644735E-01
  4.781261E-01
  4.763030E-01
  4.719739E-01
  4.687633E-01
  4.666710E-01
  4.666690E-01
  4.665861E-01
  4.668634E-01
  4.660758E-01
  4.656249E-01
  4.645464E-01
  4.642381E-01
  4.637036E-01
  4.644652E-01
  4.656119E-01
  4.684610E-01
  4.715940E-01
  4.756830E-01
  4.786431E-01
  4.806137E-01
  4.793701E-01
  4.758050E-01
  4.694894E-01
  4.634233E-01
  4.582645E-01
  4.562081E-01
  4.558380E-01
  4.574122E-01
  4.588872E-01
  4.612771E-01
  4.635947E-01
  4.669583E-01
  4.693292E-01
  4.708096E-01
  4.697420E-01
  4.681096E-01
  4.661602E-01
  4.661139E-01
  4.666023E-01
  4.679436E-01
  4.683127E-01
  4.691503E-01
  4.698280E-01
  4.715657E-01
  4.721947E-01
  4.716958E-01
  4.684189E-01
  4.644562E-01
  4.602771E-01
  4.586748E-01
  4.592669E-01
  4.630897E-01
  4.677446E-01
  4.724499E-01
  4.738435E-01
  4.718405E-01
  4.656103E-01
  4.585470E-01
  4.525005E-01
  4.512194E-01
  4.543852E-01
  4.620169E-01
  4.700818E-01
  4.765392E-01
  4.801705E-01
  4.797909E-01
  4.754200E-01
  4.693611E-01
  4.656142E-01
  4.648064E-01
  4.669502E-01
  4.691621E-01
  4.702186E-01
  4.685150E-01
  4.655889E-01
  4.624277E-01
  4.616182E-01
  4.631836E-01
  4.672297E-01
  4.711204E-01
  4.738740E-01
  4.742778E-01
  4.742129E-01
  4.741550E-01
  4.748399E-01
  4.739079E-01
  4.705731E-01
  4.642308E-01
  4.579395E-01
  4.536548E-01
  4.534045E-01
  4.553961E-01
  4.581696E-01
  4.593907E-01
  4.602369E-01
  4.616551E-01
  4.656656E-01
  4.708023E-01
  4.755397E-01
  4.767232E-01
  4.744753E-01
  4.694237E-01
  4.648360E-01
  4.619248E-01
  4.621853E-01
  4.643116E-01
  4.678359E-01
  4.704336E-01
  4.715355E-01
  4.696465E-01
  4.659768E-01
  4.612476E-01
  4.582768E-01
  4.578994E-01
  4.612837E-01
  4.664143E-01
  4.715991E-01
  4.735354E-01
  4.719621E-01
  4.669997E-01
  4.615048E-01
  4.564524E-01
  4.534723E-01
  4.522000E-01
  4.540709E-01
  4.589255E-01
  4.669738E-01
  4.749302E-01
  4.868321E-01
  4.818681E-01
  4.760608E-01
  4.682474E-01
  4.650450E-01
  4.624250E-01
  4.638227E-01
  4.635543E-01
  4.650892E-01
  4.637761E-01
  4.643325E-01
  4.629640E-01
  4.645604E-01
  4.648048E-01
  4.675835E-01
  4.677052E-01
  4.691092E-01
  4.676483E-01
  4.685251E-01
  4.679289E-01
  4.700257E-01
  4.694457E-01
  4.696677E-01
  4.662130E-01
  4.643783E-01
  4.608474E-01
  4.605520E-01
  4.590953E-01
  4.608112E-01
  4.616257E-01
  4.662405E-01
  4.698067E-01
  4.751570E-01
  4.759173E-01
  4.755763E-01
  4.706064E-01
  4.675859E-01
  4.638471E-01
  4.641112E-01
  4.632697E-01
  4.651090E-01
  4.653733E-01
  4.687016E-01
  4.700497E-01
  4.721493E-01
  4.690221E-01
  4.651635E-01
  4.581768E-01
  4.552436E-01
  4.540402E-01
  4.592447E-01
  4.650403E-01
  4.731034E-01
  4.761464E-01
  4.768426E-01
  4.708616E-01
  4.644916E-01
  4.561300E-01
  4.528855E-01
  4.522072E-01
  4.588009E-01
  4.669305E-01
  4.780235E-01
  4.840394E-01
  4.801615E-01
  4.767806E-01
  4.747269E-01
  4.662555E-01
  4.641492E-01
  4.599803E-01
  4.632646E-01
  4.624030E-01
  4.655784E-01
  4.621651E-01
  4.628009E-01
  4.591269E-01
  4.623702E-01
  4.626830E-01
  4.684970E-01
  4.675754E-01
  4.685254E-01
  4.622057E-01
  4.612356E-01
  4.582444E-01
  4.635595E-01
  4.652419E-01
  4.702972E-01
  4.672759E-01
  4.672246E-01
  4.625519E-01
  4.647461E-01
  4.634551E-01
  4.670834E-01
  4.647748E-01
  4.672187E-01
  4.660592E-01
  4.719700E-01
  4.737456E-01
  4.789406E-01
  4.755371E-01
  4.735198E-01
  4.647616E-01
  4.618257E-01
  4.567411E-01
  4.600136E-01
  4.610744E-01
  4.681952E-01
  4.692823E-01
  4.724525E-01
  4.670267E-01
  4.641070E-01
  4.561446E-01
  4.555776E-01
  4.539955E-01
  4.609125E-01
  4.644350E-01
  4.716874E-01
  4.707289E-01
  4.716795E-01
  4.664467E-01
  4.670947E-01
  4.643033E-01
  4.671868E-01
  4.648437E-01
  4.675107E-01
  4.665418E-01
  4.726509E-01
  4.747186E-01
  4.780151E-01
  4.715706E-01
  4.719771E-01
  4.643502E-01
  4.652916E-01
  4.591467E-01
  4.615132E-01
  4.564560E-01
  4.597807E-01
  4.559787E-01
  4.610385E-01
  4.592410E-01
  4.659472E-01
  4.644595E-01
  4.694097E-01
  4.641146E-01
  4.647412E-01
  4.569471E-01
  4.584465E-01
  4.547843E-01
  4.616008E-01
  4.619274E-01
  4.698972E-01
  4.685924E-01
  4.738225E-01
  4.701411E-01
  4.737922E-01
  4.690593E-01
  4.723159E-01
  4.686077E-01
  4.745234E-01
  4.736647E-01
  4.800487E-01
  4.756243E-01
  4.757359E-01
  4.659726E-01
  4.648818E-01
  4.584287E-01
  4.624439E-01
  4.601348E-01
  4.664224E-01
  4.654062E-01
  4.727660E-01
  4.715330E-01
  4.757906E-01
  4.684407E-01
  4.662819E-01
  4.560424E-01
  4.562039E-01
  4.524029E-01
  4.598116E-01
  4.609949E-01
  4.697843E-01
  4.691337E-01
  4.747868E-01
  4.713992E-01
  4.754913E-01
  4.714518E-01
  4.752746E-01
  4.711798E-01
  4.754854E-01
  4.725283E-01
  4.778935E-01
  4.747292E-01
  4.667770E-01
  4.651429E-01
  4.702542E-01
  4.648818E-01
  4.668776E-01
  4.608382E-01
  4.640690E-01
  4.595049E-01
  4.631481E-01
  4.580737E-01
  4.615201E-01
  4.578177E-01
  4.642177E-01
  4.634458E-01
  4.704417E-01
  4.663713E-01
  4.673053E-01
  4.579631E-01
  4.580425E-01
  4.534069E-01
  4.609768E-01
  4.621157E-01
  4.706914E-01
  4.684071E-01
  4.727426E-01
  4.686343E-01
  4.738379E-01
  4.708553E-01
  4.751686E-01
  4.695202E-01
  4.718593E-01
  4.670414E-01
  4.724693E-01
  4.702508E-01
  4.752879E-01
  4.693964E-01
  4.696215E-01
  4.608072E-01
  4.617518E-01
  4.572869E-01
  4.643985E-01
  4.654657E-01
  4.752354E-01
  4.744847E-01
  4.783837E-01
  4.700608E-01
  4.682859E-01
  4.589276E-01
  4.606591E-01