# vtk DataFile Version 2.0
title
ASCII
DATASET STRUCTURED_GRID
DIMENSIONS   64   64    1
POINTS   4096  float
  0.000000E+00  0.000000E+00  0.000000E+00
  0.000000E+00  3.906250E-01  0.000000E+00
  0.000000E+00  7.812500E-01  0.000000E+00
  0.000000E+00  1.171875E+00  0.000000E+00
  0.000000E+00  1.562500E+00  0.000000E+00
  0.000000E+00  1.953125E+00  0.000000E+00
  0.000000E+00  2.343750E+00  0.000000E+00
  0.000000E+00  2.734375E+00  0.000000E+00
  0.000000E+00  3.125000E+00  0.000000E+00
  0.000000E+00  3.515625E+00  0.000000E+00
  0.000000E+00  3.906250E+00  0.000000E+00
  0.000000E+00  4.296875E+00  0.000000E+00
  0.000000E+00  4.687500E+00  0.000000E+00
  0.000000E+00  5.078125E+00  0.000000E+00
  0.000000E+00  5.468750E+00  0.000000E+00
  0.000000E+00  5.859375E+00  0.000000E+00
  0.000000E+00  6.250000E+00  0.000000E+00
  0.000000E+00  6.640625E+00  0.000000E+00
  0.000000E+00  7.031250E+00  0.000000E+00
  0.000000E+00  7.421875E+00  0.000000E+00
  0.000000E+00  7.812500E+00  0.000000E+00
  0.000000E+00  8.203125E+00  0.000000E+00
  0.000000E+00  8.593750E+00  0.000000E+00
  0.000000E+00  8.984375E+00  0.000000E+00
  0.000000E+00  9.375000E+00  0.000000E+00
  0.000000E+00  9.765625E+00  0.000000E+00
  0.000000E+00  1.015625E+01  0.000000E+00
  0.000000E+00  1.054688E+01  0.000000E+00
  0.000000E+00  1.093750E+01  0.000000E+00
  0.000000E+00  1.132812E+01  0.000000E+00
  0.000000E+00  1.171875E+01  0.000000E+00
  0.000000E+00  1.210938E+01  0.000000E+00
  0.000000E+00  1.250000E+01  0.000000E+00
  0.000000E+00  1.289062E+01  0.000000E+00
  0.000000E+00  1.328125E+01  0.000000E+00
  0.000000E+00  1.367188E+01  0.000000E+00
  0.000000E+00  1.406250E+01  0.000000E+00
  0.000000E+00  1.445312E+01  0.000000E+00
  0.000000E+00  1.484375E+01  0.000000E+00
  0.000000E+00  1.523438E+01  0.000000E+00
  0.000000E+00  1.562500E+01  0.000000E+00
  0.000000E+00  1.601562E+01  0.000000E+00
  0.000000E+00  1.640625E+01  0.000000E+00
  0.000000E+00  1.679688E+01  0.000000E+00
  0.000000E+00  1.718750E+01  0.000000E+00
  0.000000E+00  1.757812E+01  0.000000E+00
  0.000000E+00  1.796875E+01  0.000000E+00
  0.000000E+00  1.835938E+01  0.000000E+00
  0.000000E+00  1.875000E+01  0.000000E+00
  0.000000E+00  1.914062E+01  0.000000E+00
  0.000000E+00  1.953125E+01  0.000000E+00
  0.000000E+00  1.992188E+01  0.000000E+00
  0.000000E+00  2.031250E+01  0.000000E+00
  0.000000E+00  2.070312E+01  0.000000E+00
  0.000000E+00  2.109375E+01  0.000000E+00
  0.000000E+00  2.148438E+01  0.000000E+00
  0.000000E+00  2.187500E+01  0.000000E+00
  0.000000E+00  2.226562E+01  0.000000E+00
  0.000000E+00  2.265625E+01  0.000000E+00
  0.000000E+00  2.304688E+01  0.000000E+00
  0.000000E+00  2.343750E+01  0.000000E+00
  0.000000E+00  2.382812E+01  0.000000E+00
  0.000000E+00  2.421875E+01  0.000000E+00
  0.000000E+00  2.460938E+01  0.000000E+00
  3.906250E-01  0.000000E+00  0.000000E+00
  3.906250E-01  3.906250E-01  0.000000E+00
  3.906250E-01  7.812500E-01  0.000000E+00
  3.906250E-01  1.171875E+00  0.000000E+00
  3.906250E-01  1.562500E+00  0.000000E+00
  3.906250E-01  1.953125E+00  0.000000E+00
  3.906250E-01  2.343750E+00  0.000000E+00
  3.906250E-01  2.734375E+00  0.000000E+00
  3.906250E-01  3.125000E+00  0.000000E+00
  3.906250E-01  3.515625E+00  0.000000E+00
  3.906250E-01  3.906250E+00  0.000000E+00
  3.906250E-01  4.296875E+00  0.000000E+00
  3.906250E-01  4.687500E+00  0.000000E+00
  3.906250E-01  5.078125E+00  0.000000E+00
  3.906250E-01  5.468750E+00  0.000000E+00
  3.906250E-01  5.859375E+00  0.000000E+00
  3.906250E-01  6.250000E+00  0.000000E+00
  3.906250E-01  6.640625E+00  0.000000E+00
  3.906250E-01  7.031250E+00  0.000000E+00
  3.906250E-01  7.421875E+00  0.000000E+00
  3.906250E-01  7.812500E+00  0.000000E+00
  3.906250E-01  8.203125E+00  0.000000E+00
  3.906250E-01  8.593750E+00  0.000000E+00
  3.906250E-01  8.984375E+00  0.000000E+00
  3.906250E-01  9.375000E+00  0.000000E+00
  3.906250E-01  9.765625E+00  0.000000E+00
  3.906250E-01  1.015625E+01  0.000000E+00
  3.906250E-01  1.054688E+01  0.000000E+00
  3.906250E-01  1.093750E+01  0.000000E+00
  3.906250E-01  1.132812E+01  0.000000E+00
  3.906250E-01  1.171875E+01  0.000000E+00
  3.906250E-01  1.210938E+01  0.000000E+00
  3.906250E-01  1.250000E+01  0.000000E+00
  3.906250E-01  1.289062E+01  0.000000E+00
  3.906250E-01  1.328125E+01  0.000000E+00
  3.906250E-01  1.367188E+01  0.000000E+00
  3.906250E-01  1.406250E+01  0.000000E+00
  3.906250E-01  1.445312E+01  0.000000E+00
  3.906250E-01  1.484375E+01  0.000000E+00
  3.906250E-01  1.523438E+01  0.000000E+00
  3.906250E-01  1.562500E+01  0.000000E+00
  3.906250E-01  1.601562E+01  0.000000E+00
  3.906250E-01  1.640625E+01  0.000000E+00
  3.906250E-01  1.679688E+01  0.000000E+00
  3.906250E-01  1.718750E+01  0.000000E+00
  3.906250E-01  1.757812E+01  0.000000E+00
  3.906250E-01  1.796875E+01  0.000000E+00
  3.906250E-01  1.835938E+01  0.000000E+00
  3.906250E-01  1.875000E+01  0.000000E+00
  3.906250E-01  1.914062E+01  0.000000E+00
  3.906250E-01  1.953125E+01  0.000000E+00
  3.906250E-01  1.992188E+01  0.000000E+00
  3.906250E-01  2.031250E+01  0.000000E+00
  3.906250E-01  2.070312E+01  0.000000E+00
  3.906250E-01  2.109375E+01  0.000000E+00
  3.906250E-01  2.148438E+01  0.000000E+00
  3.906250E-01  2.187500E+01  0.000000E+00
  3.906250E-01  2.226562E+01  0.000000E+00
  3.906250E-01  2.265625E+01  0.000000E+00
  3.906250E-01  2.304688E+01  0.000000E+00
  3.906250E-01  2.343750E+01  0.000000E+00
  3.906250E-01  2.382812E+01  0.000000E+00
  3.906250E-01  2.421875E+01  0.000000E+00
  3.906250E-01  2.460938E+01  0.000000E+00
  7.812500E-01  0.000000E+00  0.000000E+00
  7.812500E-01  3.906250E-01  0.000000E+00
  7.812500E-01  7.812500E-01  0.000000E+00
  7.812500E-01  1.171875E+00  0.000000E+00
  7.812500E-01  1.562500E+00  0.000000E+00
  7.812500E-01  1.953125E+00  0.000000E+00
  7.812500E-01  2.343750E+00  0.000000E+00
  7.812500E-01  2.734375E+00  0.000000E+00
  7.812500E-01  3.125000E+00  0.000000E+00
  7.812500E-01  3.515625E+00  0.000000E+00
  7.812500E-01  3.906250E+00  0.000000E+00
  7.812500E-01  4.296875E+00  0.000000E+00
  7.812500E-01  4.687500E+00  0.000000E+00
  7.812500E-01  5.078125E+00  0.000000E+00
  7.812500E-01  5.468750E+00  0.000000E+00
  7.812500E-01  5.859375E+00  0.000000E+00
  7.812500E-01  6.250000E+00  0.000000E+00
  7.812500E-01  6.640625E+00  0.000000E+00
  7.812500E-01  7.031250E+00  0.000000E+00
  7.812500E-01  7.421875E+00  0.000000E+00
  7.812500E-01  7.812500E+00  0.000000E+00
  7.812500E-01  8.203125E+00  0.000000E+00
  7.812500E-01  8.593750E+00  0.000000E+00
  7.812500E-01  8.984375E+00  0.000000E+00
  7.812500E-01  9.375000E+00  0.000000E+00
  7.812500E-01  9.765625E+00  0.000000E+00
  7.812500E-01  1.015625E+01  0.000000E+00
  7.812500E-01  1.054688E+01  0.000000E+00
  7.812500E-01  1.093750E+01  0.000000E+00
  7.812500E-01  1.132812E+01  0.000000E+00
  7.812500E-01  1.171875E+01  0.000000E+00
  7.812500E-01  1.210938E+01  0.000000E+00
  7.812500E-01  1.250000E+01  0.000000E+00
  7.812500E-01  1.289062E+01  0.000000E+00
  7.812500E-01  1.328125E+01  0.000000E+00
  7.812500E-01  1.367188E+01  0.000000E+00
  7.812500E-01  1.406250E+01  0.000000E+00
  7.812500E-01  1.445312E+01  0.000000E+00
  7.812500E-01  1.484375E+01  0.000000E+00
  7.812500E-01  1.523438E+01  0.000000E+00
  7.812500E-01  1.562500E+01  0.000000E+00
  7.812500E-01  1.601562E+01  0.000000E+00
  7.812500E-01  1.640625E+01  0.000000E+00
  7.812500E-01  1.679688E+01  0.000000E+00
  7.812500E-01  1.718750E+01  0.000000E+00
  7.812500E-01  1.757812E+01  0.000000E+00
  7.812500E-01  1.796875E+01  0.000000E+00
  7.812500E-01  1.835938E+01  0.000000E+00
  7.812500E-01  1.875000E+01  0.000000E+00
  7.812500E-01  1.914062E+01  0.000000E+00
  7.812500E-01  1.953125E+01  0.000000E+00
  7.812500E-01  1.992188E+01  0.000000E+00
  7.812500E-01  2.031250E+01  0.000000E+00
  7.812500E-01  2.070312E+01  0.000000E+00
  7.812500E-01  2.109375E+01  0.000000E+00
  7.812500E-01  2.148438E+01  0.000000E+00
  7.812500E-01  2.187500E+01  0.000000E+00
  7.812500E-01  2.226562E+01  0.000000E+00
  7.812500E-01  2.265625E+01  0.000000E+00
  7.812500E-01  2.304688E+01  0.000000E+00
  7.812500E-01  2.343750E+01  0.000000E+00
  7.812500E-01  2.382812E+01  0.000000E+00
  7.812500E-01  2.421875E+01  0.000000E+00
  7.812500E-01  2.460938E+01  0.000000E+00
  1.171875E+00  0.000000E+00  0.000000E+00
  1.171875E+00  3.906250E-01  0.000000E+00
  1.171875E+00  7.812500E-01  0.000000E+00
  1.171875E+00  1.171875E+00  0.000000E+00
  1.171875E+00  1.562500E+00  0.000000E+00
  1.171875E+00  1.953125E+00  0.000000E+00
  1.171875E+00  2.343750E+00  0.000000E+00
  1.171875E+00  2.734375E+00  0.000000E+00
  1.171875E+00  3.125000E+00  0.000000E+00
  1.171875E+00  3.515625E+00  0.000000E+00
  1.171875E+00  3.906250E+00  0.000000E+00
  1.171875E+00  4.296875E+00  0.000000E+00
  1.171875E+00  4.687500E+00  0.000000E+00
  1.171875E+00  5.078125E+00  0.000000E+00
  1.171875E+00  5.468750E+00  0.000000E+00
  1.171875E+00  5.859375E+00  0.000000E+00
  1.171875E+00  6.250000E+00  0.000000E+00
  1.171875E+00  6.640625E+00  0.000000E+00
  1.171875E+00  7.031250E+00  0.000000E+00
  1.171875E+00  7.421875E+00  0.000000E+00
  1.171875E+00  7.812500E+00  0.000000E+00
  1.171875E+00  8.203125E+00  0.000000E+00
  1.171875E+00  8.593750E+00  0.000000E+00
  1.171875E+00  8.984375E+00  0.000000E+00
  1.171875E+00  9.375000E+00  0.000000E+00
  1.171875E+00  9.765625E+00  0.000000E+00
  1.171875E+00  1.015625E+01  0.000000E+00
  1.171875E+00  1.054688E+01  0.000000E+00
  1.171875E+00  1.093750E+01  0.000000E+00
  1.171875E+00  1.132812E+01  0.000000E+00
  1.171875E+00  1.171875E+01  0.000000E+00
  1.171875E+00  1.210938E+01  0.000000E+00
  1.171875E+00  1.250000E+01  0.000000E+00
  1.171875E+00  1.289062E+01  0.000000E+00
  1.171875E+00  1.328125E+01  0.000000E+00
  1.171875E+00  1.367188E+01  0.000000E+00
  1.171875E+00  1.406250E+01  0.000000E+00
  1.171875E+00  1.445312E+01  0.000000E+00
[...]
POINT_DATA   4096
SCALARS CON  float  1
LOOKUP_TABLE default
  4.707881E-01
  4.697210E-01
  4.752680E-01
  4.734470E-01
  4.737538E-01
  4.672244E-01
  4.684615E-01
  4.676688E-01
  4.734347E-01
  4.715485E-01
  4.723429E-01
  4.667967E-01
  4.679516E-01
  4.650565E-01
  4.683267E-01
  4.666391E-01
  4.712928E-01
  4.707292E-01
  4.743523E-01
  4.701192E-01
  4.699047E-01
  4.644849E-01
  4.657787E-01
  4.623603E-01
  4.642683E-01
  4.604803E-01
  4.631398E-01
  4.627667E-01
  4.700804E-01
  4.713832E-01
  4.745378E-01
  4.684228E-01
  4.676517E-01
  4.647684E-01
  4.704876E-01
  4.702979E-01
  4.723565E-01
  4.662598E-01
  4.658156E-01
  4.618956E-01
  4.649774E-01
  4.625935E-01
  4.649671E-01
  4.614956E-01
  4.636888E-01
  4.610434E-01
  4.653161E-01
  4.664177E-01
  4.744410E-01
  4.751029E-01
  4.764062E-01
  4.679411E-01
  4.648846E-01
  4.602727E-01
  4.662422E-01
  4.702254E-01
  4.797201E-01
  4.801097E-01
  4.813309E-01
  4.745003E-01
  4.739940E-01
  4.699686E-01
  4.721306E-01
  4.683966E-01
  4.706014E-01
  4.710060E-01
  4.786233E-01
  4.792899E-01
  4.788766E-01
  4.696184E-01
  4.666556E-01
  4.639412E-01
  4.692676E-01
  4.691838E-01
  4.715943E-01
  4.685176E-01
  4.709035E-01
  4.684214E-01
  4.693436E-01
  4.651929E-01
  4.679911E-01
  4.689338E-01
  4.749222E-01
  4.730409E-01
  4.721894E-01
  4.653813E-01
  4.651540E-01
  4.629097E-01
  4.666503E-01
  4.649999E-01
  4.670793E-01
  4.647670E-01
  4.688058E-01
  4.690544E-01
  4.728537E-01
  4.694445E-01
  4.695647E-01
  4.658651E-01
  4.683998E-01
  4.663206E-01
  4.679522E-01
  4.644059E-01
  4.665303E-01
  4.647633E-01
  4.669260E-01
  4.624874E-01
  4.620039E-01
  4.579186E-01
  4.602331E-01
  4.588887E-01
  4.635041E-01
  4.658408E-01
  4.748646E-01
  4.771942E-01
  4.783632E-01
  4.695111E-01
  4.657091E-01
  4.626626E-01
  4.704881E-01
  4.760485E-01
  4.838678E-01
  4.813828E-01
  4.791079E-01
  4.713212E-01
  4.710359E-01
  4.688661E-01
  4.717430E-01
  4.685794E-01
  4.636257E-01
  4.701596E-01
  4.790877E-01
  4.813851E-01
  4.788112E-01
  4.705701E-01
  4.662779E-01
  4.646961E-01
  4.682283E-01
  4.697410E-01
  4.717357E-01
  4.708009E-01
  4.717152E-01
  4.702607E-01
  4.701130E-01
  4.680429E-01
  4.693443E-01
  4.702080E-01
  4.731457E-01
  4.723840E-01
  4.715968E-01
  4.679880E-01
  4.669961E-01
  4.652005E-01
  4.661568E-01
  4.650764E-01
  4.655949E-01
  4.642035E-01
  4.654843E-01
  4.651006E-01
  4.658968E-01
  4.635835E-01
  4.636744E-01
  4.640210E-01
  4.682922E-01
  4.698729E-01
  4.705395E-01
  4.669134E-01
  4.655151E-01
  4.637359E-01
  4.644602E-01
  4.619132E-01
  4.600009E-01
  4.565070E-01
  4.570753E-01
  4.581208E-01
  4.632464E-01
  4.680715E-01
  4.752260E-01
  4.777496E-01
  4.771819E-01
  4.705736E-01
  4.662926E-01
  4.642941E-01
  4.693073E-01
  4.750268E-01
  4.816488E-01
  4.818354E-01
  4.787567E-01
  4.705910E-01
  4.648207E-01
  4.595203E-01
  4.587718E-01
  4.585314E-01
  4.629103E-01
  4.708857E-01
  4.777144E-01
  4.820728E-01
  4.768405E-01
  4.691619E-01
  4.612556E-01
  4.608672E-01
  4.628251E-01
  4.678099E-01
  4.698359E-01
  4.730455E-01
  4.733955E-01
  4.739744E-01
  4.703226E-01
  4.683093E-01
  4.665505E-01
  4.698323E-01
  4.719743E-01
  4.742355E-01
  4.717609E-01
  4.702379E-01
  4.676675E-01
  4.688509E-01
  4.688672E-01
  4.702444E-01
  4.679111E-01
  4.663420E-01
  4.631736E-01
  4.640275E-01
  4.647692E-01
  4.677487E-01
  4.673605E-01
  4.676464E-01
  4.654955E-01
  4.656036E-01
  4.641426E-01
  4.656458E-01
  4.663460E-01
  4.691062E-01
  4.676184E-01
  4.653000E-01
  4.604852E-01
  4.603508E-01
  4.613246E-01
  4.651638E-01
  4.660621E-01
  4.688741E-01
  4.706602E-01
  4.740528E-01
  4.722162E-01
  4.691818E-01
  4.646133E-01
  4.664089E-01
  4.707243E-01
  4.781675E-01
  4.804769E-01
  4.797552E-01
  4.730463E-01
  4.675073E-01
  4.617554E-01
  4.604893E-01
  4.588069E-01
  4.605043E-01
  4.603353E-01
  4.708477E-01
  4.745282E-01
  4.785238E-01
  4.707767E-01
  4.664391E-01
  4.588036E-01
  4.609896E-01
  4.606965E-01
  4.672101E-01
  4.678513E-01
  4.730784E-01
  4.709150E-01
  4.726648E-01
  4.679057E-01
  4.694529E-01
  4.668404E-01
  4.709697E-01
  4.694103E-01
  4.728066E-01
  4.698873E-01
  4.722184E-01
  4.682782E-01
  4.693742E-01
  4.647953E-01
  4.664990E-01
  4.629802E-01
  4.648788E-01
  4.610324E-01
  4.637039E-01
  4.620562E-01
  4.664344E-01
  4.643917E-01
  4.673593E-01
  4.648925E-01
  4.683644E-01
  4.657243E-01
  4.681716E-01
  4.651805E-01
  4.682035E-01
  4.647658E-01
  4.655177E-01
  4.606864E-01
  4.640243E-01
  4.646596E-01
  4.712822E-01
  4.697412E-01
  4.714254E-01
  4.671129E-01
  4.692493E-01
  4.656755E-01
  4.669537E-01
  4.626991E-01
  4.657994E-01
  4.654593E-01
  4.719407E-01
  4.721750E-01
  4.759779E-01
  4.712578E-01
  4.698658E-01
  4.618454E-01
  4.600678E-01
  4.546758E-01
  4.582528E-01
  4.652872E-01
  4.718377E-01
  4.720656E-01
  4.756865E-01
  4.680450E-01
  4.646228E-01
  4.562213E-01
  4.581277E-01
  4.569326E-01
  4.639860E-01
  4.647919E-01
  4.713446E-01
  4.693912E-01
  4.715298E-01
  4.655856E-01
  4.670194E-01
  4.645790E-01
  4.710271E-01
  4.710072E-01
  4.756427E-01
  4.714590E-01
  4.726135E-01
  4.668112E-01
  4.677033E-01
  4.627737E-01
  4.655467E-01
  4.624123E-01
  4.654382E-01
  4.617749E-01
  4.662464E-01
  4.665919E-01
  4.737465E-01
  4.711387E-01
  4.711517E-01
  4.633733E-01
  4.641924E-01
  4.615743E-01
  4.676263E-01
  4.675435E-01
  4.724466E-01
  4.676463E-01
  4.672070E-01
  4.617929E-01
  4.677823E-01
  4.708629E-01
  4.787938E-01
  4.743042E-01
  4.721429E-01
  4.639304E-01
  4.653796E-01
  4.620811E-01
  4.650235E-01
  4.612342E-01
  4.653075E-01
  4.644329E-01
  4.700878E-01
  4.675434E-01
  4.700192E-01
  4.657228E-01
  4.688162E-01
  4.659612E-01
  4.692873E-01
  4.651683E-01
  4.676183E-01
  4.648233E-01
  4.698044E-01
  4.693970E-01
  4.715487E-01
  4.663340E-01
  4.654819E-01
  4.607034E-01
  4.623210E-01
  4.603963E-01
  4.647348E-01
  4.648773E-01
  4.692522E-01
  4.667119E-01
  4.676779E-01
  4.641787E-01
  4.677186E-01
  4.682287E-01
  4.739808E-01
  4.734054E-01
  4.760427E-01
  4.724350E-01
  4.727940E-01
  4.667273E-01
  4.643922E-01
  4.577642E-01
  4.589161E-01
  4.581892E-01
  4.634523E-01
  4.631935E-01
  4.677013E-01
  4.679350E-01
  4.728188E-01
  4.704300E-01
  4.707957E-01
  4.664307E-01
  4.691178E-01
  4.682327E-01
  4.718549E-01
  4.692311E-01
  4.704511E-01
  4.657316E-01
  4.656658E-01
  4.623576E-01
  4.677259E-01
  4.711463E-01
  4.784377E-01
  4.757096E-01
  4.733577E-01
  4.654427E-01
  4.651824E-01
  4.625788E-01
  4.654253E-01
  4.625292E-01
  4.641135E-01
  4.610969E-01
  4.636774E-01
  4.619751E-01
  4.659535E-01
  4.656005E-01
  4.701146E-01
  4.684682E-01
  4.699812E-01
  4.654247E-01
  4.665275E-01
  4.668654E-01
  4.673646E-01
  4.674663E-01
  4.702215E-01
  4.690527E-01
  4.686036E-01
  4.652180E-01
  4.649306E-01
  4.635349E-01
  4.658339E-01
  4.665168E-01
  4.693091E-01
  4.682835E-01
  4.681737E-01
  4.655500E-01
  4.671837E-01
  4.691645E-01
  4.750598E-01
  4.773515E-01
  4.788683E-01
  4.748827E-01
  4.718146E-01
  4.661800E-01
  4.635639E-01
  4.600876E-01
  4.614250E-01
  4.623754E-01
  4.659489E-01
  4.664087E-01
  4.697811E-01
  4.724683E-01
  4.775943E-01
  4.768896E-01
  4.744109E-01
  4.686015E-01
  4.680343E-01
  4.684402E-01
  4.723985E-01
  4.727838E-01
  4.733603E-01
  4.693252E-01
  4.669373E-01
  4.641907E-01
  4.678967E-01
  4.718139E-01
  4.763960E-01
  4.738036E-01
  4.704960E-01
  4.657800E-01
  4.664712E-01
  4.661501E-01
  4.672589E-01
  4.649623E-01
  4.658056E-01
  4.656082E-01
  4.676397E-01
  4.655207E-01
  4.647403E-01
  4.628985E-01
  4.662747E-01
  4.689909E-01
  4.731446E-01
  4.719529E-01
  4.706926E-01
  4.617535E-01
  4.631467E-01
  4.650439E-01
  4.681128E-01
  4.698465E-01
  4.717730E-01
  4.718707E-01
  4.718087E-01
  4.704122E-01
  4.704846E-01
  4.704091E-01
  4.708670E-01
  4.691639E-01
  4.678125E-01
  4.668527E-01
  4.691067E-01
  4.720962E-01
  4.757611E-01
  4.766716E-01
  4.761707E-01
  4.732150E-01
  4.705456E-01
  4.667098E-01
  4.637521E-01
  4.610650E-01
  4.618485E-01
  4.641598E-01
  4.676066E-01
  4.685696E-01
  4.693393E-01
  4.697715E-01
  4.717399E-01
  4.720500E-01
  4.721680E-01
  4.718805E-01
  4.739746E-01
  4.752288E-01
  4.751867E-01
  4.717973E-01
  4.686752E-01
  4.657709E-01
  4.652470E-01
  4.650340E-01
  4.666677E-01
  4.678512E-01
  4.692392E-01
  4.683096E-01
  4.676394E-01
  4.670835E-01
  4.688760E-01
  4.698199E-01
  4.700937E-01
  4.681353E-01
  4.674491E-01
  4.673357E-01
  4.687712E-01
  4.684207E-01
  4.676907E-01
  4.659546E-01
  4.661244E-01
  4.661574E-01
  4.665101E-01
  4.646465E-01
  4.631266E-01
  4.620469E-01
  4.616020E-01
  4.638797E-01
  4.681342E-01
  4.712935E-01
  4.728327E-01
  4.723485E-01
  4.716598E-01
  4.709303E-01
  4.713169E-01
  4.718877E-01
  4.725730E-01
  4.717195E-01
  4.699553E-01
  4.676230E-01
  4.671345E-01
  4.687561E-01
  4.724705E-01
  4.751663E-01
  4.753607E-01
  4.721827E-01
  4.683599E-01
  4.653481E-01
  4.648360E-01
  4.660014E-01
  4.689759E-01
  4.716578E-01
  4.729005E-01
  4.713681E-01
  4.696858E-01
  4.695267E-01
  4.715393E-01
  4.725486E-01
  4.718613E-01
  4.701538E-01
  4.702483E-01
  4.712733E-01
  4.719984E-01
  4.704848E-01
  4.682027E-01
  4.659161E-01
  4.653622E-01
  4.659455E-01
  4.675808E-01
  4.679900E-01
  4.669006E-01
  4.645230E-01
  4.640800E-01
  4.663292E-01
  4.705048E-01
  4.725458E-01
  4.716340E-01
  4.691508E-01
  4.693201E-01
  4.722183E-01
  4.755985E-01
  4.750639E-01
  4.710203E-01
  4.660217E-01
  4.642510E-01
  4.653744E-01
  4.675926E-01
  4.674005E-01
  4.650962E-01
  4.591569E-01
  4.607728E-01
  4.631483E-01
  4.668227E-01
  4.693745E-01
  4.719169E-01
  4.724601E-01
  4.725722E-01
  4.714161E-01
  4.716897E-01
  4.718914E-01
  4.723978E-01
  4.705213E-01
  4.684154E-01
  4.661958E-01
  4.666724E-01
  4.680825E-01
  4.708785E-01
  4.720840E-01
  4.723367E-01
  4.700024E-01
  4.676071E-01
  4.647558E-01
  4.640440E-01
  4.646260E-01
  4.681945E-01
  4.717656E-01
  4.743207E-01
  4.725411E-01
  4.690999E-01
  4.651907E-01
  4.642141E-01
  4.643850E-01
  4.665257E-01
  4.687797E-01
  4.721259E-01
  4.730955E-01
  4.715291E-01
  4.663963E-01
  4.622470E-01
  4.602933E-01
  4.624857E-01
  4.651584E-01
  4.673267E-01
  4.663487E-01
  4.649128E-01
  4.635779E-01
  4.654541E-01
  4.686158E-01
  4.725238E-01
  4.731582E-01
  4.715769E-01
  4.681922E-01
  4.674694E-01
  4.689373E-01
  4.725999E-01
  4.740935E-01
  4.736875E-01
  4.707627E-01
  4.686881E-01
  4.664669E-01
  4.650278E-01
  4.622514E-01
  4.603944E-01
  4.625967E-01
  4.628398E-01
  4.638899E-01
  4.678766E-01
  4.693777E-01
  4.707171E-01
  4.687252E-01
  4.680599E-01
  4.664554E-01
  4.679525E-01
  4.687262E-01
  4.709722E-01
  4.698604E-01
  4.685667E-01
  4.648744E-01
  4.642686E-01
  4.647168E-01
  4.693111E-01
  4.723658E-01
  4.746403E-01
  4.715886E-01
  4.681785E-01
  4.637213E-01
  4.637151E-01
  4.651108E-01
  4.702820E-01
  4.736193E-01
  4.761644E-01
  4.734883E-01
  4.707308E-01
  4.671951E-01
  4.674262E-01
  4.667043E-01
  4.670673E-01
  4.654105E-01
  4.664017E-01
  4.665455E-01
  4.678249E-01
  4.657349E-01
  4.644144E-01
  4.621266E-01
  4.635447E-01
  4.650141E-01
  4.683937E-01
  4.684386E-01
  4.682859E-01
  4.661539E-01
  4.676391E-01
  4.695227E-01
  4.729399E-01
  4.716735E-01
  4.690559E-01
  4.646086E-01
  4.651151E-01
  4.676084E-01
  4.727720E-01
  4.738718E-01
  4.736717E-01
  4.707246E-01
  4.706766E-01
  4.701728E-01
  4.710581E-01
  4.684808E-01
  4.662192E-01
  4.611059E-01
  4.639342E-01
  4.643697E-01
  4.676308E-01
  4.678726E-01
  4.704150E-01
  4.687989E-01
  4.686992E-01
  4.655796E-01
  4.666743E-01
  4.663392E-01
  4.686863E-01
  4.665390E-01
  4.661147E-01
  4.635207E-01
  4.656640E-01
  4.664931E-01
  4.706638E-01
  4.715274E-01
  4.740801E-01
  4.718853E-01
  4.705743E-01
  4.652937E-01
  4.634999E-01
  4.611993E-01
  4.647732E-01
  4.674205E-01
  4.723396E-01
  4.715656E-01
  4.707674E-01
  4.661277E-01
  4.653914E-01
  4.634653E-01
  4.656857E-01
  4.658628E-01
  4.691176E-01
  4.685602E-01
  4.688578E-01
  4.645962E-01
  4.633366E-01
  4.611536E-01
  4.639450E-01
  4.646304E-01
  4.674511E-01
  4.664078E-01
  4.681092E-01
  4.677098E-01
  4.708452E-01
  4.706817E-01
  4.717169E-01
  4.678590E-01
  4.658646E-01
  4.617448E-01
  4.625039E-01
  4.626015E-01
  4.669695E-01
  4.688341E-01
  4.730837E-01
  4.733137E-01
  4.746513E-01
  4.709916E-01
  4.686392E-01
  4.633940E-01
  4.626020E-01
  4.650832E-01
  4.661627E-01
  4.656327E-01
  4.685513E-01
  4.687964E-01
  4.703228E-01
  4.675439E-01
  4.664577E-01
  4.633303E-01
  4.643181E-01
  4.641304E-01
  4.667704E-01
  4.658741E-01
  4.664288E-01
  4.642230E-01
  4.655879E-01
  4.658913E-01
  4.699993E-01
  4.718160E-01
  4.751655E-01
  4.736307E-01
  4.722518E-01
  4.670865E-01
  4.651522E-01
  4.625784E-01
  4.647467E-01
  4.657512E-01
  4.693436E-01
  4.691633E-01
  4.704133E-01
  4.689531E-01
  4.705075E-01
  4.691297E-01
  4.690399E-01
  4.654805E-01
  4.651361E-01
  4.638236E-01
  4.663284E-01
  4.664576E-01
  4.685788E-01
  4.672362E-01
  4.678612E-01
  4.660305E-01
  4.675523E-01
  4.671389E-01
  4.692296E-01
  4.681829E-01
  4.692968E-01
  4.674854E-01
  4.675100E-01
  4.639660E-01
  4.629364E-01
  4.609617E-01
  4.640111E-01
  4.659061E-01
  4.698410E-01
  4.696034E-01
  4.708991E-01
  4.695405E-01
  4.709023E-01
  4.692936E-01
  4.696305E-01
  4.670608E-01
  4.671895E-01
  4.657869E-01
  4.673347E-01
  4.666968E-01
  4.667762E-01
  4.673797E-01
  4.693676E-01
  4.697198E-01
  4.689942E-01
  4.666769E-01
  4.656681E-01
  4.649782E-01
  4.651239E-01
  4.641813E-01
  4.644182E-01
  4.655721E-01
  4.685633E-01
  4.701804E-01
  4.708950E-01
  4.704303E-01
  4.716526E-01
  4.727936E-01
  4.732540E-01
  4.702457E-01
  4.659136E-01
  4.611388E-01
  4.594201E-01
  4.600557E-01
  4.633126E-01
  4.656122E-01
  4.667655E-01
  4.656673E-01
  4.652879E-01
  4.653644E-01
  4.670956E-01
  4.681417E-01
  4.690636E-01
  4.681779E-01
  4.672892E-01
  4.659882E-01
  4.664508E-01
  4.669981E-01
  4.678565E-01
  4.669136E-01
  4.661770E-01
  4.654790E-01
  4.665623E-01
  4.670905E-01
  4.672329E-01
  4.652909E-01
  4.634934E-01
  4.617872E-01
  4.625266E-01
  4.641978E-01
  4.669225E-01
  4.679079E-01
  4.682903E-01
  4.676659E-01
  4.682262E-01
  4.680084E-01
  4.671562E-01
  4.641297E-01
  4.619662E-01
  4.612379E-01
  4.635698E-01
  4.736253E-01
  4.710474E-01
  4.688974E-01
  4.665421E-01
  4.674867E-01
  4.674724E-01
  4.683505E-01
  4.669956E-01
  4.669856E-01
  4.656318E-01
  4.658852E-01
  4.646058E-01
  4.651018E-01
  4.649747E-01
  4.675272E-01
  4.690243E-01
  4.712624E-01
  4.708241E-01
  4.716982E-01
  4.717607E-01
  4.735154E-01
  4.724420E-01
  4.708517E-01
  4.664374E-01
  4.636761E-01
  4.607770E-01
  4.613289E-01
  4.619087E-01
  4.642812E-01
  4.644636E-01
  4.658185E-01
  4.662633E-01
  4.687645E-01
  4.690274E-01
  4.691055E-01
  4.664502E-01
  4.655878E-01
  4.647157E-01
  4.669812E-01
  4.682581E-01
  4.699834E-01
  4.685005E-01
  4.679747E-01
  4.670206E-01
  4.687430E-01
  4.683885E-01
  4.675737E-01
  4.638854E-01
  4.622248E-01
  4.607592E-01
  4.624759E-01
  4.640564E-01
  4.683249E-01
  4.713243E-01
  4.741450E-01
  4.722326E-01
  4.691495E-01
  4.639474E-01
  4.614411E-01
  4.592433E-01
  4.605671E-01
  4.626659E-01
  4.680091E-01
  4.714629E-01
  4.763143E-01
  4.740242E-01
  4.704031E-01
  4.655129E-01
  4.652566E-01
  4.656562E-01
  4.683994E-01
  4.684859E-01
  4.693772E-01
  4.678613E-01
  4.674859E-01
  4.645233E-01
  4.634920E-01
  4.627732E-01
  4.669485E-01
  4.706986E-01
  4.742647E-01
  4.725166E-01
  4.710055E-01
  4.691293E-01
  4.710971E-01
  4.711329E-01
  4.704981E-01
  4.654590E-01
  4.616129E-01
  4.578290E-01
  4.589314E-01
  4.605269E-01
  4.637077E-01
  4.629000E-01
  4.623078E-01
  4.610434E-01
  4.645115E-01
  4.681168E-01
  4.725990E-01
  4.722589E-01
  4.708496E-01
  4.666327E-01
  4.652079E-01
  4.638186E-01
  4.654448E-01
  4.654442E-01
  4.670956E-01
  4.672291E-01
  4.693560E-01
  4.687241E-01
  4.678925E-01
  4.638524E-01
  4.621497E-01
  4.608768E-01
  4.638955E-01
  4.667252E-01
  4.713806E-01
  4.724575E-01
  4.723585E-01
  4.679708E-01
  4.648992E-01
  4.612137E-01
  4.604775E-01
  4.583808E-01
  4.589192E-01
  4.601956E-01
  4.664516E-01
  4.719126E-01
  4.810288E-01
  4.766449E-01
  4.714845E-01
  4.668881E-01
  4.655031E-01
  4.645142E-01
  4.648993E-01
  4.648223E-01
  4.661205E-01
  4.663285E-01
  4.664554E-01
  4.645907E-01
  4.635463E-01
  4.629168E-01
  4.651939E-01
  4.676769E-01
  4.703256E-01
  4.701722E-01
  4.697017E-01
  4.685188E-01
  4.689914E-01
  4.685835E-01
  4.682253E-01
  4.659317E-01
  4.642402E-01
  4.624594E-01
  4.632138E-01
  4.642592E-01
  4.658436E-01
  4.651711E-01
  4.652128E-01
  4.661868E-01
  4.700861E-01
  4.726794E-01
  4.732763E-01
  4.700380E-01
  4.671222E-01
  4.649056E-01
  4.655428E-01
  4.658698E-01
  4.663699E-01
  4.654768E-01
  4.666766E-01
  4.689564E-01
  4.723012E-01
  4.717302E-01
  4.681824E-01
  4.625403E-01
  4.602823E-01
  4.608138E-01
  4.644611E-01
  4.674525E-01
  4.707207E-01
  4.719601E-01
  4.721316E-01
  4.688939E-01
  4.650957E-01
  4.608823E-01
  4.594284E-01
  4.592495E-01
  4.623936E-01
  4.673058E-01
  4.747311E-01
  4.797316E-01
  4.762534E-01
  4.740507E-01
  4.705438E-01
  4.660869E-01
  4.647140E-01
  4.640072E-01
  4.650432E-01
  4.647487E-01
  4.654390E-01
  4.650402E-01
  4.653861E-01
  4.636078E-01
  4.624338E-01
  4.612877E-01
  4.636347E-01
  4.661649E-01
  4.684604E-01
  4.667049E-01
  4.645508E-01
  4.625807E-01
  4.644195E-01
  4.664912E-01
  4.685318E-01
  4.669181E-01
  4.648979E-01
  4.625787E-01
  4.639068E-01
  4.659263E-01
  4.683022E-01
  4.669798E-01
  4.655413E-01
  4.648324E-01
  4.684548E-01
  4.720753E-01
  4.747162E-01
  4.728087E-01
  4.699612E-01
  4.659773E-01
  4.642816E-01
  4.626996E-01
  4.632432E-01
  4.636167E-01
  4.661779E-01
  4.682040E-01
  4.705308E-01
  4.692646E-01
  4.665634E-01
  4.620434E-01
  4.603814E-01
  4.603724E-01
  4.635544E-01
  4.661253E-01
  4.688823E-01
  4.685644E-01
  4.674302E-01
  4.645919E-01
  4.643299E-01
  4.650854E-01
  4.676856E-01
  4.679116E-01
  4.679994E-01
  4.676666E-01
  4.707214E-01
  4.737903E-01
  4.738348E-01
  4.698488E-01
  4.695843E-01
  4.662341E-01
  4.671578E-01
  4.639760E-01
  4.642109E-01
  4.608533E-01
  4.621211E-01
  4.604978E-01
  4.632803E-01
  4.624533E-01
  4.652813E-01
  4.639536E-01
  4.660504E-01
  4.638477E-01
  4.647936E-01
  4.613399E-01
  4.618483E-01
  4.598401E-01
  4.635346E-01
  4.647857E-01
  4.696689E-01
  4.691153E-01
  4.707164E-01
  4.681713E-01
  4.704691E-01
  4.697174E-01
  4.720584E-01
  4.692732E-01
  4.705975E-01
  4.700959E-01
  4.745350E-01
  4.732410E-01
  4.722381E-01
  4.656437E-01
  4.643962E-01
  4.623453E-01
  4.658873E-01
  4.652676E-01
  4.672131E-01
  4.650693E-01
  4.680119E-01
  4.684503E-01
  4.719339E-01
  4.685267E-01
  4.661327E-01
  4.599237E-01
  4.601291E-01
  4.593385E-01
  4.634929E-01
  4.636162E-01
  4.671423E-01
  4.666273E-01
  4.695553E-01
  4.682648E-01
  4.710067E-01
  4.706636E-01
  4.743761E-01
  4.733314E-01
  4.749674E-01
  4.725660E-01
  4.745849E-01
  4.728231E-01
  4.664127E-01
  4.649080E-01
  4.685866E-01
  4.653092E-01
  4.680328E-01
  4.648656E-01
  4.674484E-01
  4.630217E-01
  4.641745E-01
  4.599625E-01
  4.633147E-01
  4.617767E-01
  4.666884E-01
  4.653993E-01
  4.697628E-01
  4.667770E-01
  4.677847E-01
  4.609597E-01
  4.606029E-01
  4.571051E-01
  4.633327E-01
  4.652736E-01
  4.719138E-01
  4.692159E-01
  4.704665E-01
  4.661856E-01
  4.702290E-01
  4.693418E-01
  4.732203E-01
  4.686092E-01
  4.695009E-01
  4.660821E-01
  4.706314E-01
  4.687516E-01
  4.710267E-01
  4.658708E-01
  4.670808E-01
  4.630676E-01
  4.655751E-01
  4.623100E-01
  4.659863E-01
  4.647496E-01
  4.700992E-01
  4.685276E-01
  4.713028E-01
  4.663014E-01
  4.668091E-01
  4.618356E-01
  4.640856E-01