# vtk DataFile Version 2.0
title
ASCII
DATASET STRUCTURED_GRID
DIMENSIONS   64   64    1
POINTS   4096  float
  0.000000E+00  0.000000E+00  0.000000E+00
  0.000000E+00  3.906250E-01  0.000000E+00
  0.000000E+00  7.812500E-01  0.000000E+00
  0.000000E+00  1.171875E+00  0.000000E+00
  0.000000E+00  1.562500E+00  0.000000E+00
  0.000000E+00  1.953125E+00  0.000000E+00
  0.000000E+00  2.343750E+00  0.000000E+00
  0.000000E+00  2.734375E+00  0.000000E+00
  0.000000E+00  3.125000E+00  0.000000E+00
  0.000000E+00  3.515625E+00  0.000000E+00
  0.000000E+00  3.906250E+00  0.000000E+00
  0.000000E+00  4.296875E+00  0.000000E+00
  0.000000E+00  4.687500E+00  0.000000E+00
  0.000000E+00  5.078125E+00  0.000000E+00
  0.000000E+00  5.468750E+00  0.000000E+00
  0.000000E+00  5.859375E+00  0.000000E+00
  0.000000E+00  6.250000E+00  0.000000E+00
  0.000000E+00  6.640625E+00  0.000000E+00
  0.000000E+00  7.031250E+00  0.000000E+00
  0.000000E+00  7.421875E+00  0.000000E+00
  0.000000E+00  7.812500E+00  0.000000E+00
  0.000000E+00  8.203125E+00  0.000000E+00
  0.000000E+00  8.593750E+00  0.000000E+00
  0.000000E+00  8.984375E+00  0.000000E+00
  0.000000E+00  9.375000E+00  0.000000E+00
  0.000000E+00  9.765625E+00  0.000000E+00
  0.000000E+00  1.015625E+01  0.000000E+00
  0.000000E+00  1.054688E+01  0.000000E+00
  0.000000E+00  1.093750E+01  0.000000E+00
  0.000000E+00  1.132812E+01  0.000000E+00
  0.000000E+00  1.171875E+01  0.000000E+00
  0.000000E+00  1.210938E+01  0.000000E+00
  0.000000E+00  1.250000E+01  0.000000E+00
  0.000000E+00  1.289062E+01  0.000000E+00
  0.000000E+00  1.328125E+01  0.000000E+00
  0.000000E+00  1.367188E+01  0.000000E+00
  0.000000E+00  1.406250E+01  0.000000E+00
  0.000000E+00  1.445312E+01  0.000000E+00
  0.000000E+00  1.484375E+01  0.000000E+00
  0.000000E+00  1.523438E+01  0.000000E+00
  0.000000E+00  1.562500E+01  0.000000E+00
  0.000000E+00  1.601562E+01  0.000000E+00
  0.000000E+00  1.640625E+01  0.000000E+00
  0.000000E+00  1.679688E+01  0.000000E+00
  0.000000E+00  1.718750E+01  0.000000E+00
  0.000000E+00  1.757812E+01  0.000000E+00
  0.000000E+00  1.796875E+01  0.000000E+00
  0.000000E+00  1.835938E+01  0.000000E+00
  0.000000E+00  1.875000E+01  0.000000E+00
  0.000000E+00  1.914062E+01  0.000000E+00
  0.000000E+00  1.953125E+01  0.000000E+00
  0.000000E+00  1.992188E+01  0.000000E+00
  0.000000E+00  2.031250E+01  0.000000E+00
  0.000000E+00  2.070312E+01  0.000000E+00
  0.000000E+00  2.109375E+01  0.000000E+00
  0.000000E+00  2.148438E+01  0.000000E+00
  0.000000E+00  2.187500E+01  0.000000E+00
  0.000000E+00  2.226562E+01  0.000000E+00
  0.000000E+00  2.265625E+01  0.000000E+00
  0.000000E+00  2.304688E+01  0.000000E+00
  0.000000E+00  2.343750E+01  0.000000E+00
  0.000000E+00  2.382812E+01  0.000000E+00
  0.000000E+00  2.421875E+01  0.000000E+00
  0.000000E+00  2.460938E+01  0.000000E+00
  3.906250E-01  0.000000E+00  0.000000E+00
  3.906250E-01  3.906250E-01  0.000000E+00
  3.906250E-01  7.812500E-01  0.000000E+00
  3.906250E-01  1.171875E+00  0.000000E+00
  3.906250E-01  1.562500E+00  0.000000E+00
  3.906250E-01  1.953125E+00  0.000000E+00
  3.906250E-01  2.343750E+00  0.000000E+00
  3.906250E-01  2.734375E+00  0.000000E+00
  3.906250E-01  3.125000E+00  0.000000E+00
  3.906250E-01  3.515625E+00  0.000000E+00
  3.906250E-01  3.906250E+00  0.000000E+00
  3.906250E-01  4.296875E+00  0.000000E+00
  3.906250E-01  4.687500E+00  0.000000E+00
  3.906250E-01  5.078125E+00  0.000000E+00
  3.906250E-01  5.468750E+00  0.000000E+00
  3.906250E-01  5.859375E+00  0.000000E+00
  3.906250E-01  6.250000E+00  0.000000E+00
  3.906250E-01  6.640625E+00  0.000000E+00
  3.906250E-01  7.031250E+00  0.000000E+00
  3.906250E-01  7.421875E+00  0.000000E+00
  3.906250E-01  7.812500E+00  0.000000E+00
  3.906250E-01  8.203125E+00  0.000000E+00
  3.906250E-01  8.593750E+00  0.000000E+00
  3.906250E-01  8.984375E+00  0.000000E+00
  3.906250E-01  9.375000E+00  0.000000E+00
  3.906250E-01  9.765625E+00  0.000000E+00
  3.906250E-01  1.015625E+01  0.000000E+00
  3.906250E-01  1.054688E+01  0.000000E+00
  3.906250E-01  1.093750E+01  0.000000E+00
  3.906250E-01  1.132812E+01  0.000000E+00
  3.906250E-01  1.171875E+01  0.000000E+00
  3.906250E-01  1.210938E+01  0.000000E+00
  3.906250E-01  1.250000E+01  0.000000E+00
  3.906250E-01  1.289062E+01  0.000000E+00
  3.906250E-01  1.328125E+01  0.000000E+00
  3.906250E-01  1.367188E+01  0.000000E+00
  3.906250E-01  1.406250E+01  0.000000E+00
  3.906250E-01  1.445312E+01  0.000000E+00
  3.906250E-01  1.484375E+01  0.000000E+00
  3.906250E-01  1.523438E+01  0.000000E+00
  3.906250E-01  1.562500E+01  0.000000E+00
  3.906250E-01  1.601562E+01  0.000000E+00
  3.906250E-01  1.640625E+01  0.000000E+00
  3.906250E-01  1.679688E+01  0.000000E+00
  3.906250E-01  1.718750E+01  0.000000E+00
  3.906250E-01  1.757812E+01  0.000000E+00
  3.906250E-01  1.796875E+01  0.000000E+00
  3.906250E-01  1.835938E+01  0.000000E+00
  3.906250E-01  1.875000E+01  0.000000E+00
  3.906250E-01  1.914062E+01  0.000000E+00
  3.906250E-01  1.953125E+01  0.000000E+00
  3.906250E-01  1.992188E+01  0.000000E+00
  3.906250E-01  2.031250E+01  0.000000E+00
  3.906250E-01  2.070312E+01  0.000000E+00
  3.906250E-01  2.109375E+01  0.000000E+00
  3.906250E-01  2.148438E+01  0.000000E+00
  3.906250E-01  2.187500E+01  0.000000E+00
  3.906250E-01  2.226562E+01  0.000000E+00
  3.906250E-01  2.265625E+01  0.000000E+00
  3.906250E-01  2.304688E+01  0.000000E+00
  3.906250E-01  2.343750E+01  0.000000E+00
  3.906250E-01  2.382812E+01  0.000000E+00
  3.906250E-01  2.421875E+01  0.000000E+00
  3.906250E-01  2.460938E+01  0.000000E+00
  7.812500E-01  0.000000E+00  0.000000E+00
  7.812500E-01  3.906250E-01  0.000000E+00
  7.812500E-01  7.812500E-01  0.000000E+00
  7.812500E-01  1.171875E+00  0.000000E+00
  7.812500E-01  1.562500E+00  0.000000E+00
  7.812500E-01  1.953125E+00  0.000000E+00
  7.812500E-01  2.343750E+00  0.000000E+00
  7.812500E-01  2.734375E+00  0.000000E+00
  7.812500E-01  3.125000E+00  0.000000E+00
  7.812500E-01  3.515625E+00  0.000000E+00
  7.812500E-01  3.906250E+00  0.000000E+00
  7.812500E-01  4.296875E+00  0.000000E+00
  7.812500E-01  4.687500E+00  0.000000E+00
  7.812500E-01  5.078125E+00  0.000000E+00
  7.812500E-01  5.468750E+00  0.000000E+00
  7.812500E-01  5.859375E+00  0.000000E+00
  7.812500E-01  6.250000E+00  0.000000E+00
  7.812500E-01  6.640625E+00  0.000000E+00
  7.812500E-01  7.031250E+00  0.000000E+00
  7.812500E-01  7.421875E+00  0.000000E+00
  7.812500E-01  7.812500E+00  0.000000E+00
  7.812500E-01  8.203125E+00  0.000000E+00
  7.812500E-01  8.593750E+00  0.000000E+00
  7.812500E-01  8.984375E+00  0.000000E+00
  7.812500E-01  9.375000E+00  0.000000E+00
  7.812500E-01  9.765625E+00  0.000000E+00
  7.812500E-01  1.015625E+01  0.000000E+00
  7.812500E-01  1.054688E+01  0.000000E+00
  7.812500E-01  1.093750E+01  0.000000E+00
  7.812500E-01  1.132812E+01  0.000000E+00
  7.812500E-01  1.171875E+01  0.000000E+00
  7.812500E-01  1.210938E+01  0.000000E+00
  7.812500E-01  1.250000E+01  0.000000E+00
  7.812500E-01  1.289062E+01  0.000000E+00
  7.812500E-01  1.328125E+01  0.000000E+00
  7.812500E-01  1.367188E+01  0.000000E+00
  7.812500E-01  1.406250E+01  0.000000E+00
  7.812500E-01  1.445312E+01  0.000000E+00
  7.812500E-01  1.484375E+01  0.000000E+00
  7.812500E-01  1.523438E+01  0.000000E+00
  7.812500E-01  1.562500E+01  0.000000E+00
  7.812500E-01  1.601562E+01  0.000000E+00
  7.812500E-01  1.640625E+01  0.000000E+00
  7.812500E-01  1.679688E+01  0.000000E+00
  7.812500E-01  1.718750E+01  0.000000E+00
  7.812500E-01  1.757812E+01  0.000000E+00
  7.812500E-01  1.796875E+01  0.000000E+00
  7.812500E-01  1.835938E+01  0.000000E+00
  7.812500E-01  1.875000E+01  0.000000E+00
  7.812500E-01  1.914062E+01  0.000000E+00
  7.812500E-01  1.953125E+01  0.000000E+00
  7.812500E-01  1.992188E+01  0.000000E+00
  7.812500E-01  2.031250E+01  0.000000E+00
  7.812500E-01  2.070312E+01  0.000000E+00
  7.812500E-01  2.109375E+01  0.000000E+00
  7.812500E-01  2.148438E+01  0.000000E+00
  7.812500E-01  2.187500E+01  0.000000E+00
  7.812500E-01  2.226562E+01  0.000000E+00
  7.812500E-01  2.265625E+01  0.000000E+00
  7.812500E-01  2.304688E+01  0.000000E+00
  7.812500E-01  2.343750E+01  0.000000E+00
  7.812500E-01  2.382812E+01  0.000000E+00
  7.812500E-01  2.421875E+01  0.000000E+00
  7.812500E-01  2.460938E+01  0.000000E+00
  1.171875E+00  0.000000E+00  0.000000E+00
  1.171875E+00  3.906250E-01  0.000000E+00
  1.171875E+00  7.812500E-01  0.000000E+00
  1.171875E+00  1.171875E+00  0.000000E+00
  1.171875E+00  1.562500E+00  0.000000E+00
  1.171875E+00  1.953125E+00  0.000000E+00
  1.171875E+00  2.343750E+00  0.000000E+00
  1.171875E+00  2.734375E+00  0.000000E+00
  1.171875E+00  3.125000E+00  0.000000E+00
  1.171875E+00  3.515625E+00  0.000000E+00
  1.171875E+00  3.906250E+00  0.000000E+00
  1.171875E+00  4.296875E+00  0.000000E+00
  1.171875E+00  4.687500E+00  0.000000E+00
  1.171875E+00  5.078125E+00  0.000000E+00
  1.171875E+00  5.468750E+00  0.000000E+00
  1.171875E+00  5.859375E+00  0.000000E+00
  1.171875E+00  6.250000E+00  0.000000E+00
  1.171875E+00  6.640625E+00  0.000000E+00
  1.171875E+00  7.031250E+00  0.000000E+00
  1.171875E+00  7.421875E+00  0.000000E+00
  1.171875E+00  7.812500E+00  0.000000E+00
  1.171875E+00  8.203125E+00  0.000000E+00
  1.171875E+00  8.593750E+00  0.000000E+00
  1.171875E+00  8.984375E+00  0.000000E+00
  1.171875E+00  9.375000E+00  0.000000E+00
  1.171875E+00  9.765625E+00  0.000000E+00
  1.171875E+00  1.015625E+01  0.000000E+00
  1.171875E+00  1.054688E+01  0.000000E+00
  1.171875E+00  1.093750E+01  0.000000E+00
  1.171875E+00  1.132812E+01  0.000000E+00
  1.171875E+00  1.171875E+01  0.000000E+00
  1.171875E+00  1.210938E+01  0.000000E+00
  1.171875E+00  1.250000E+01  0.000000E+00
  1.171875E+00  1.289062E+01  0.000000E+00
  1.171875E+00  1.328125E+01  0.000000E+00
  1.171875E+00  1.367188E+01  0.000000E+00
  1.171875E+00  1.406250E+01  0.000000E+00
  1.171875E+00  1.445312E+01  0.000000E+00
[...]
POINT_DATA   4096
SCALARS CON  float  1
LOOKUP_TABLE default
  4.713431E-01
  4.715019E-01
  4.775457E-01
  4.743201E-01
  4.747547E-01
  4.680236E-01
  4.699908E-01
  4.684230E-01
  4.744965E-01
  4.724612E-01
  4.742024E-01
  4.676721E-01
  4.680045E-01
  4.636906E-01
  4.680675E-01
  4.674994E-01
  4.737545E-01
  4.723313E-01
  4.753236E-01
  4.697587E-01
  4.699197E-01
  4.640425E-01
  4.655355E-01
  4.609090E-01
  4.627652E-01
  4.587441E-01
  4.630902E-01
  4.634466E-01
  4.715401E-01
  4.716937E-01
  4.750313E-01
  4.690850E-01
  4.697099E-01
  4.662272E-01
  4.715195E-01
  4.701937E-01
  4.730665E-01
  4.669966E-01
  4.668647E-01
  4.614642E-01
  4.641369E-01
  4.609667E-01
  4.638819E-01
  4.596318E-01
  4.618925E-01
  4.590531E-01
  4.653063E-01
  4.677487E-01
  4.773663E-01
  4.775153E-01
  4.786992E-01
  4.686312E-01
  4.646866E-01
  4.586504E-01
  4.656416E-01
  4.710049E-01
  4.830869E-01
  4.841424E-01
  4.859355E-01
  4.773960E-01
  4.749688E-01
  4.676504E-01
  4.689975E-01
  4.659197E-01
  4.715112E-01
  4.733538E-01
  4.810770E-01
  4.801700E-01
  4.796907E-01
  4.706380E-01
  4.681429E-01
  4.641329E-01
  4.689871E-01
  4.693114E-01
  4.738277E-01
  4.710927E-01
  4.725440E-01
  4.679343E-01
  4.688648E-01
  4.655274E-01
  4.696025E-01
  4.696880E-01
  4.746522E-01
  4.716143E-01
  4.714183E-01
  4.650750E-01
  4.656013E-01
  4.627697E-01
  4.663933E-01
  4.643517E-01
  4.672712E-01
  4.651431E-01
  4.695110E-01
  4.690734E-01
  4.734251E-01
  4.707193E-01
  4.720658E-01
  4.674950E-01
  4.686193E-01
  4.647813E-01
  4.668862E-01
  4.641565E-01
  4.672736E-01
  4.646155E-01
  4.661567E-01
  4.609691E-01
  4.608304E-01
  4.561128E-01
  4.583041E-01
  4.569931E-01
  4.634187E-01
  4.668106E-01
  4.762931E-01
  4.774402E-01
  4.784422E-01
  4.693843E-01
  4.660514E-01
  4.626541E-01
  4.714409E-01
  4.782493E-01
  4.881075E-01
  4.859516E-01
  4.834940E-01
  4.738611E-01
  4.716573E-01
  4.667372E-01
  4.688377E-01
  4.665415E-01
  4.639609E-01
  4.723664E-01
  4.814391E-01
  4.830263E-01
  4.798908E-01
  4.713921E-01
  4.663066E-01
  4.636764E-01
  4.668500E-01
  4.695123E-01
  4.731602E-01
  4.729471E-01
  4.729544E-01
  4.701438E-01
  4.693520E-01
  4.676584E-01
  4.692954E-01
  4.699281E-01
  4.722207E-01
  4.713111E-01
  4.709910E-01
  4.682185E-01
  4.676679E-01
  4.657344E-01
  4.659872E-01
  4.644116E-01
  4.650320E-01
  4.643087E-01
  4.658854E-01
  4.651989E-01
  4.655149E-01
  4.633852E-01
  4.638929E-01
  4.641547E-01
  4.675441E-01
  4.685605E-01
  4.696406E-01
  4.670439E-01
  4.658418E-01
  4.631009E-01
  4.624503E-01
  4.594301E-01
  4.578770E-01
  4.549210E-01
  4.556061E-01
  4.569499E-01
  4.627905E-01
  4.683952E-01
  4.755060E-01
  4.775450E-01
  4.767427E-01
  4.704062E-01
  4.661436E-01
  4.640588E-01
  4.695160E-01
  4.767030E-01
  4.848990E-01
  4.859570E-01
  4.826203E-01
  4.732450E-01
  4.652358E-01
  4.575408E-01
  4.555961E-01
  4.564700E-01
  4.634664E-01
  4.730035E-01
  4.795227E-01
  4.836263E-01
  4.776747E-01
  4.698704E-01
  4.602997E-01
  4.583534E-01
  4.591771E-01
  4.658667E-01
  4.701471E-01
  4.752227E-01
  4.746257E-01
  4.738414E-01
  4.687772E-01
  4.671159E-01
  4.654594E-01
  4.693338E-01
  4.713970E-01
  4.744985E-01
  4.722105E-01
  4.711193E-01
  4.678585E-01
  4.688480E-01
  4.680300E-01
  4.693072E-01
  4.664838E-01
  4.655581E-01
  4.626518E-01
  4.641909E-01
  4.645281E-01
  4.676235E-01
  4.667028E-01
  4.667993E-01
  4.633916E-01
  4.632850E-01
  4.622061E-01
  4.655398E-01
  4.666368E-01
  4.689238E-01
  4.658200E-01
  4.634769E-01
  4.588266E-01
  4.592293E-01
  4.595782E-01
  4.639959E-01
  4.659182E-01
  4.703731E-01
  4.716597E-01
  4.740324E-01
  4.709134E-01
  4.683818E-01
  4.640065E-01
  4.662916E-01
  4.704504E-01
  4.789459E-01
  4.818202E-01
  4.817325E-01
  4.742399E-01
  4.681979E-01
  4.610911E-01
  4.591341E-01
  4.567702E-01
  4.596857E-01
  4.599386E-01
  4.719635E-01
  4.757752E-01
  4.804988E-01
  4.720712E-01
  4.670747E-01
  4.571153E-01
  4.582108E-01
  4.573511E-01
  4.655634E-01
  4.672783E-01
  4.737135E-01
  4.709038E-01
  4.725599E-01
  4.669417E-01
  4.688300E-01
  4.659464E-01
  4.711169E-01
  4.700566E-01
  4.747522E-01
  4.714121E-01
  4.733922E-01
  4.680066E-01
  4.689801E-01
  4.635877E-01
  4.652098E-01
  4.608180E-01
  4.635379E-01
  4.602971E-01
  4.641129E-01
  4.616328E-01
  4.656020E-01
  4.627355E-01
  4.663779E-01
  4.636952E-01
  4.678122E-01
  4.653229E-01
  4.690938E-01
  4.657806E-01
  4.682231E-01
  4.631038E-01
  4.641638E-01
  4.596721E-01
  4.639289E-01
  4.637528E-01
  4.706901E-01
  4.697853E-01
  4.735731E-01
  4.693607E-01
  4.709636E-01
  4.653940E-01
  4.660723E-01
  4.608591E-01
  4.642196E-01
  4.637332E-01
  4.715862E-01
  4.723742E-01
  4.770579E-01
  4.715410E-01
  4.698080E-01
  4.603612E-01
  4.582347E-01
  4.522674E-01
  4.570578E-01
  4.648862E-01
  4.725524E-01
  4.726324E-01
  4.771062E-01
  4.688537E-01
  4.651474E-01
  4.546075E-01
  4.555896E-01
  4.536279E-01
  4.624122E-01
  4.643096E-01
  4.723089E-01
  4.696602E-01
  4.718029E-01
  4.649811E-01
  4.669634E-01
  4.642058E-01
  4.717793E-01
  4.721916E-01
  4.782469E-01
  4.733664E-01
  4.738525E-01
  4.662219E-01
  4.673215E-01
  4.621051E-01
  4.651696E-01
  4.605512E-01
  4.636673E-01
  4.603170E-01
  4.666724E-01
  4.669413E-01
  4.742505E-01
  4.708637E-01
  4.716724E-01
  4.633266E-01
  4.642423E-01
  4.610435E-01
  4.683958E-01
  4.683230E-01
  4.733486E-01
  4.673648E-01
  4.678445E-01
  4.628176E-01
  4.693035E-01
  4.705150E-01
  4.781670E-01
  4.742101E-01
  4.745437E-01
  4.662823E-01
  4.667295E-01
  4.607514E-01
  4.631474E-01
  4.588994E-01
  4.640161E-01
  4.631871E-01
  4.701445E-01
  4.676548E-01
  4.705375E-01
  4.647369E-01
  4.673156E-01
  4.634149E-01
  4.674436E-01
  4.633411E-01
  4.670546E-01
  4.639255E-01
  4.699902E-01
  4.696803E-01
  4.729164E-01
  4.669904E-01
  4.655424E-01
  4.588519E-01
  4.605304E-01
  4.588042E-01
  4.647257E-01
  4.647795E-01
  4.695835E-01
  4.664407E-01
  4.681381E-01
  4.641893E-01
  4.680437E-01
  4.678318E-01
  4.745232E-01
  4.744046E-01
  4.784030E-01
  4.739570E-01
  4.735553E-01
  4.658422E-01
  4.640753E-01
  4.575130E-01
  4.590712E-01
  4.568119E-01
  4.620637E-01
  4.620622E-01
  4.682876E-01
  4.681522E-01
  4.729881E-01
  4.701421E-01
  4.721410E-01
  4.680952E-01
  4.711233E-01
  4.690920E-01
  4.730742E-01
  4.698257E-01
  4.710118E-01
  4.652312E-01
  4.662648E-01
  4.637848E-01
  4.702945E-01
  4.721464E-01
  4.784799E-01
  4.749581E-01
  4.741550E-01
  4.663496E-01
  4.658828E-01
  4.612244E-01
  4.635836E-01
  4.601012E-01
  4.627394E-01
  4.599015E-01
  4.638200E-01
  4.622505E-01
  4.668806E-01
  4.653286E-01
  4.692809E-01
  4.661917E-01
  4.679823E-01
  4.632731E-01
  4.655655E-01
  4.669794E-01
  4.676984E-01
  4.675958E-01
  4.705475E-01
  4.690138E-01
  4.682297E-01
  4.639020E-01
  4.634263E-01
  4.622649E-01
  4.657656E-01
  4.671146E-01
  4.703279E-01
  4.687568E-01
  4.682984E-01
  4.650067E-01
  4.665613E-01
  4.683812E-01
  4.749900E-01
  4.780489E-01
  4.805966E-01
  4.762244E-01
  4.720183E-01
  4.648196E-01
  4.622737E-01
  4.595329E-01
  4.615996E-01
  4.617667E-01
  4.648823E-01
  4.656694E-01
  4.704446E-01
  4.733807E-01
  4.782738E-01
  4.773142E-01
  4.757747E-01
  4.701661E-01
  4.691428E-01
  4.685431E-01
  4.727372E-01
  4.732982E-01
  4.737965E-01
  4.690145E-01
  4.671913E-01
  4.654862E-01
  4.700625E-01
  4.730309E-01
  4.765780E-01
  4.734311E-01
  4.707222E-01
  4.657032E-01
  4.655319E-01
  4.640229E-01
  4.655033E-01
  4.641148E-01
  4.660272E-01
  4.657037E-01
  4.676593E-01
  4.652753E-01
  4.647112E-01
  4.623992E-01
  4.654882E-01
  4.677745E-01
  4.723717E-01
  4.714834E-01
  4.708267E-01
  4.618387E-01
  4.628585E-01
  4.651596E-01
  4.681506E-01
  4.702822E-01
  4.714927E-01
  4.714270E-01
  4.711420E-01
  4.708389E-01
  4.712584E-01
  4.714859E-01
  4.711255E-01
  4.693145E-01
  4.673343E-01
  4.663401E-01
  4.679848E-01
  4.715115E-01
  4.757277E-01
  4.781561E-01
  4.780670E-01
  4.750044E-01
  4.704119E-01
  4.651993E-01
  4.613460E-01
  4.596462E-01
  4.609531E-01
  4.639067E-01
  4.672981E-01
  4.693917E-01
  4.705310E-01
  4.708493E-01
  4.713031E-01
  4.715568E-01
  4.723230E-01
  4.734896E-01
  4.753763E-01
  4.764305E-01
  4.758039E-01
  4.726501E-01
  4.685308E-01
  4.648422E-01
  4.635374E-01
  4.644321E-01
  4.670340E-01
  4.692199E-01
  4.701059E-01
  4.691046E-01
  4.679056E-01
  4.674258E-01
  4.684119E-01
  4.693957E-01
  4.697085E-01
  4.687552E-01
  4.678478E-01
  4.672697E-01
  4.674235E-01
  4.672858E-01
  4.671225E-01
  4.668062E-01
  4.670815E-01
  4.671016E-01
  4.665675E-01
  4.647402E-01
  4.628827E-01
  4.621650E-01
  4.609017E-01
  4.635032E-01
  4.675596E-01
  4.719273E-01
  4.735669E-01
  4.735598E-01
  4.719566E-01
  4.715471E-01
  4.718047E-01
  4.733698E-01
  4.735929E-01
  4.725790E-01
  4.693307E-01
  4.667969E-01
  4.658915E-01
  4.688173E-01
  4.731739E-01
  4.773652E-01
  4.775434E-01
  4.743874E-01
  4.685128E-01
  4.640860E-01
  4.621256E-01
  4.643015E-01
  4.679652E-01
  4.719435E-01
  4.731783E-01
  4.729044E-01
  4.714843E-01
  4.716233E-01
  4.720320E-01
  4.727226E-01
  4.717221E-01
  4.709313E-01
  4.703765E-01
  4.715634E-01
  4.720795E-01
  4.716479E-01
  4.687429E-01
  4.659047E-01
  4.637884E-01
  4.645483E-01
  4.661464E-01
  4.679209E-01
  4.674035E-01
  4.664728E-01
  4.658224E-01
  4.678287E-01
  4.703098E-01
  4.723518E-01
  4.717186E-01
  4.708886E-01
  4.706748E-01
  4.727334E-01
  4.740076E-01
  4.735616E-01
  4.700909E-01
  4.670878E-01
  4.656859E-01
  4.672698E-01
  4.684863E-01
  4.682486E-01
  4.650553E-01
  4.575989E-01
  4.591318E-01
  4.621204E-01
  4.667534E-01
  4.706380E-01
  4.737014E-01
  4.743074E-01
  4.740736E-01
  4.730240E-01
  4.731186E-01
  4.730153E-01
  4.727692E-01
  4.705255E-01
  4.679961E-01
  4.657135E-01
  4.661727E-01
  4.682800E-01
  4.718006E-01
  4.737957E-01
  4.741123E-01
  4.714787E-01
  4.679542E-01
  4.640216E-01
  4.625133E-01
  4.634624E-01
  4.677268E-01
  4.722518E-01
  4.754664E-01
  4.746289E-01
  4.714427E-01
  4.669469E-01
  4.644182E-01
  4.638379E-01
  4.662523E-01
  4.695640E-01
  4.731412E-01
  4.739037E-01
  4.719699E-01
  4.671246E-01
  4.628744E-01
  4.603314E-01
  4.611660E-01
  4.630221E-01
  4.651163E-01
  4.652869E-01
  4.651375E-01
  4.650225E-01
  4.671614E-01
  4.701007E-01
  4.732260E-01
  4.736165E-01
  4.721173E-01
  4.692049E-01
  4.681583E-01
  4.688624E-01
  4.716221E-01
  4.735625E-01
  4.745274E-01
  4.732552E-01
  4.713921E-01
  4.682462E-01
  4.651386E-01
  4.613564E-01
  4.588811E-01
  4.606711E-01
  4.610672E-01
  4.622090E-01
  4.674307E-01
  4.700098E-01
  4.726034E-01
  4.704602E-01
  4.694776E-01
  4.670334E-01
  4.686214E-01
  4.691909E-01
  4.715752E-01
  4.697782E-01
  4.682235E-01
  4.639655E-01
  4.636844E-01
  4.642034E-01
  4.693663E-01
  4.723151E-01
  4.749526E-01
  4.717241E-01
  4.684393E-01
  4.633438E-01
  4.634015E-01
  4.649124E-01
  4.710160E-01
  4.745140E-01
  4.774793E-01
  4.748401E-01
  4.726717E-01
  4.685864E-01
  4.680828E-01
  4.662481E-01
  4.668238E-01
  4.652361E-01
  4.663753E-01
  4.657644E-01
  4.671989E-01
  4.654513E-01
  4.651197E-01
  4.627118E-01
  4.637513E-01
  4.639070E-01
  4.667167E-01
  4.665115E-01
  4.675628E-01
  4.664156E-01
  4.687615E-01
  4.699427E-01
  4.726788E-01
  4.706844E-01
  4.687488E-01
  4.648590E-01
  4.660808E-01
  4.682747E-01
  4.737121E-01
  4.750822E-01
  4.758827E-01
  4.728506E-01
  4.723597E-01
  4.704401E-01
  4.706030E-01
  4.671819E-01
  4.648256E-01
  4.591465E-01
  4.620626E-01
  4.628258E-01
  4.672421E-01
  4.681665E-01
  4.711733E-01
  4.693131E-01
  4.694589E-01
  4.663491E-01
  4.673881E-01
  4.660573E-01
  4.677879E-01
  4.653483E-01
  4.654789E-01
  4.629330E-01
  4.650974E-01
  4.655840E-01
  4.700217E-01
  4.709336E-01
  4.738233E-01
  4.715623E-01
  4.705289E-01
  4.651286E-01
  4.635559E-01
  4.612642E-01
  4.653614E-01
  4.682055E-01
  4.735843E-01
  4.727422E-01
  4.717945E-01
  4.659783E-01
  4.641259E-01
  4.614137E-01
  4.644095E-01
  4.655950E-01
  4.696113E-01
  4.684726E-01
  4.682384E-01
  4.635807E-01
  4.627766E-01
  4.606927E-01
  4.636201E-01
  4.639505E-01
  4.669071E-01
  4.658140E-01
  4.677869E-01
  4.671808E-01
  4.704210E-01
  4.700885E-01
  4.713759E-01
  4.673931E-01
  4.655226E-01
  4.611544E-01
  4.622475E-01
  4.628221E-01
  4.684703E-01
  4.712595E-01
  4.761271E-01
  4.755583E-01
  4.756609E-01
  4.704059E-01
  4.674368E-01
  4.618092E-01
  4.610725E-01
  4.649049E-01
  4.653909E-01
  4.648167E-01
  4.677721E-01
  4.683057E-01
  4.699091E-01
  4.673267E-01
  4.662101E-01
  4.632107E-01
  4.640777E-01
  4.638069E-01
  4.661121E-01
  4.651747E-01
  4.656490E-01
  4.635528E-01
  4.648738E-01
  4.655751E-01
  4.702077E-01
  4.726930E-01
  4.761231E-01
  4.744120E-01
  4.724298E-01
  4.667799E-01
  4.643673E-01
  4.619686E-01
  4.645658E-01
  4.661710E-01
  4.698104E-01
  4.695412E-01
  4.703563E-01
  4.683975E-01
  4.691005E-01
  4.674123E-01
  4.675800E-01
  4.648171E-01
  4.647020E-01
  4.632721E-01
  4.654146E-01
  4.655812E-01
  4.676547E-01
  4.665189E-01
  4.674448E-01
  4.663408E-01
  4.682394E-01
  4.679077E-01
  4.695775E-01
  4.682796E-01
  4.690301E-01
  4.670372E-01
  4.667702E-01
  4.633331E-01
  4.623863E-01
  4.606399E-01
  4.637663E-01
  4.662870E-01
  4.710596E-01
  4.715538E-01
  4.723259E-01
  4.696410E-01
  4.696226E-01
  4.679537E-01
  4.690481E-01
  4.673871E-01
  4.674677E-01
  4.661566E-01
  4.676131E-01
  4.670965E-01
  4.671467E-01
  4.672234E-01
  4.685972E-01
  4.688492E-01
  4.688063E-01
  4.672387E-01
  4.662425E-01
  4.646959E-01
  4.640593E-01
  4.630836E-01
  4.638301E-01
  4.652535E-01
  4.683587E-01
  4.706012E-01
  4.727245E-01
  4.734736E-01
  4.747804E-01
  4.748243E-01
  4.738660E-01
  4.696305E-01
  4.644652E-01
  4.593095E-01
  4.578910E-01
  4.592356E-01
  4.631095E-01
  4.654723E-01
  4.662532E-01
  4.645428E-01
  4.636958E-01
  4.637788E-01
  4.662642E-01
  4.683821E-01
  4.700556E-01
  4.691820E-01
  4.678259E-01
  4.657813E-01
  4.654428E-01
  4.654228E-01
  4.665987E-01
  4.669237E-01
  4.677010E-01
  4.676314E-01
  4.682180E-01
  4.677088E-01
  4.671902E-01
  4.651926E-01
  4.637422E-01
  4.622563E-01
  4.628002E-01
  4.637997E-01
  4.659419E-01
  4.669666E-01
  4.680453E-01
  4.679078E-01
  4.681098E-01
  4.668650E-01
  4.653728E-01
  4.627049E-01
  4.616325E-01
  4.617476E-01
  4.642326E-01
  4.746550E-01
  4.726776E-01
  4.701484E-01
  4.675915E-01
  4.672395E-01
  4.671132E-01
  4.676858E-01
  4.670636E-01
  4.668377E-01
  4.658510E-01
  4.655960E-01
  4.646444E-01
  4.647013E-01
  4.648161E-01
  4.666763E-01
  4.685687E-01
  4.712964E-01
  4.729264E-01
  4.747686E-01
  4.753047E-01
  4.755417E-01
  4.733806E-01
  4.700905E-01
  4.651032E-01
  4.614645E-01
  4.590790E-01
  4.595908E-01
  4.606840E-01
  4.626324E-01
  4.635620E-01
  4.653140E-01
  4.668774E-01
  4.692438E-01
  4.698333E-01
  4.693625E-01
  4.670130E-01
  4.658146E-01
  4.655067E-01
  4.672716E-01
  4.683522E-01
  4.691240E-01
  4.683365E-01
  4.684945E-01
  4.688127E-01
  4.701087E-01
  4.695855E-01
  4.679476E-01
  4.644158E-01
  4.619397E-01
  4.603774E-01
  4.616461E-01
  4.640876E-01
  4.683217E-01
  4.715305E-01
  4.735088E-01
  4.717314E-01
  4.679150E-01
  4.622605E-01
  4.583612E-01
  4.564790E-01
  4.586734E-01
  4.629297E-01
  4.689346E-01
  4.729346E-01
  4.767238E-01
  4.756602E-01
  4.721280E-01
  4.671812E-01
  4.654229E-01
  4.654008E-01
  4.678044E-01
  4.689655E-01
  4.698669E-01
  4.683366E-01
  4.666828E-01
  4.637216E-01
  4.627446E-01
  4.630492E-01
  4.667411E-01
  4.702789E-01
  4.733653E-01
  4.729620E-01
  4.721619E-01
  4.709509E-01
  4.719781E-01
  4.718130E-01
  4.703679E-01
  4.652182E-01
  4.603076E-01
  4.564635E-01
  4.570020E-01
  4.588759E-01
  4.616271E-01
  4.617237E-01
  4.617891E-01
  4.618890E-01
  4.652930E-01
  4.692004E-01
  4.732463E-01
  4.734733E-01
  4.717764E-01
  4.677829E-01
  4.654141E-01
  4.637042E-01
  4.645216E-01
  4.652683E-01
  4.673760E-01
  4.684285E-01
  4.698091E-01
  4.687937E-01
  4.670563E-01
  4.632823E-01
  4.610113E-01
  4.599197E-01
  4.627068E-01
  4.665953E-01
  4.714206E-01
  4.728851E-01
  4.719796E-01
  4.676215E-01
  4.637453E-01
  4.598124E-01
  4.580862E-01
  4.564862E-01
  4.574861E-01
  4.601107E-01
  4.663782E-01
  4.723175E-01
  4.821386E-01
  4.780827E-01
  4.730868E-01
  4.673797E-01
  4.651605E-01
  4.637415E-01
  4.647704E-01
  4.648008E-01
  4.659414E-01
  4.653069E-01
  4.653614E-01
  4.637635E-01
  4.638230E-01
  4.636912E-01
  4.660336E-01
  4.674359E-01
  4.693624E-01
  4.687360E-01
  4.687608E-01
  4.678574E-01
  4.689971E-01
  4.688789E-01
  4.689923E-01
  4.663773E-01
  4.645205E-01
  4.621817E-01
  4.625660E-01
  4.625562E-01
  4.638402E-01
  4.637158E-01
  4.656389E-01
  4.677075E-01
  4.717952E-01
  4.733378E-01
  4.733949E-01
  4.697519E-01
  4.670903E-01
  4.646588E-01
  4.652439E-01
  4.651312E-01
  4.660324E-01
  4.657060E-01
  4.676686E-01
  4.692952E-01
  4.716007E-01
  4.700470E-01
  4.669045E-01
  4.614096E-01
  4.588253E-01
  4.582311E-01
  4.620786E-01
  4.663204E-01
  4.715721E-01
  4.734601E-01
  4.736053E-01
  4.695530E-01
  4.651807E-01
  4.597375E-01
  4.575392E-01
  4.571614E-01
  4.615682E-01
  4.675205E-01
  4.756319E-01
  4.804060E-01
  4.772897E-01
  4.746733E-01
  4.719355E-01
  4.659695E-01
  4.644059E-01
  4.624559E-01
  4.646260E-01
  4.642336E-01
  4.658788E-01
  4.639817E-01
  4.641429E-01
  4.615149E-01
  4.623985E-01
  4.621920E-01
  4.660515E-01
  4.669700E-01
  4.684681E-01
  4.647814E-01
  4.631926E-01
  4.609017E-01
  4.642624E-01
  4.662789E-01
  4.695480E-01
  4.672033E-01
  4.658733E-01
  4.627115E-01
  4.645758E-01
  4.651832E-01
  4.678223E-01
  4.659991E-01
  4.662405E-01
  4.652644E-01
  4.693828E-01
  4.718205E-01
  4.754989E-01
  4.733574E-01
  4.712362E-01
  4.655082E-01
  4.633961E-01
  4.604569E-01
  4.621823E-01
  4.628066E-01
  4.670091E-01
  4.682715E-01
  4.706826E-01
  4.679374E-01
  4.657984E-01
  4.604209E-01
  4.591969E-01
  4.580942E-01
  4.624246E-01
  4.653057E-01
  4.699074E-01
  4.692312E-01
  4.688918E-01
  4.652560E-01
  4.656400E-01
  4.650622E-01
  4.677460E-01
  4.669611E-01
  4.682454E-01
  4.676467E-01
  4.716297E-01
  4.738463E-01
  4.752514E-01
  4.704779E-01
  4.705219E-01
  4.655168E-01
  4.663761E-01
  4.622473E-01
  4.635009E-01
  4.596397E-01
  4.615841E-01
  4.589873E-01
  4.624105E-01
  4.610924E-01
  4.653627E-01
  4.642322E-01
  4.677122E-01
  4.645597E-01
  4.652958E-01
  4.600610E-01
  4.608828E-01
  4.584270E-01
  4.634273E-01
  4.642173E-01
  4.697546E-01
  4.684483E-01
  4.713381E-01
  4.688094E-01
  4.719805E-01
  4.697208E-01
  4.721396E-01
  4.690003E-01
  4.721325E-01
  4.713405E-01
  4.760235E-01
  4.733737E-01
  4.731228E-01
  4.659340E-01
  4.650030E-01
  4.612151E-01
  4.646471E-01
  4.631859E-01
  4.666527E-01
  4.650017E-01
  4.696186E-01
  4.693641E-01
  4.730422E-01
  4.684193E-01
  4.666025E-01
  4.592538E-01
  4.593518E-01
  4.571804E-01
  4.624278E-01
  4.629775E-01
  4.682603E-01
  4.672843E-01
  4.709378E-01
  4.690518E-01
  4.726262E-01
  4.710169E-01
  4.745823E-01
  4.723638E-01
  4.752106E-01
  4.728507E-01
  4.760299E-01
  4.735098E-01
  4.666013E-01
  4.651557E-01
  4.691740E-01
  4.654118E-01
  4.677341E-01
  4.636083E-01
  4.661050E-01
  4.618638E-01
  4.639902E-01
  4.598205E-01
  4.628778E-01
  4.603862E-01
  4.654116E-01
  4.645053E-01
  4.697880E-01
  4.667449E-01
  4.676792E-01
  4.603040E-01
  4.601319E-01
  4.565224E-01
  4.629367E-01
  4.643547E-01
  4.709692E-01
  4.682760E-01
  4.705565E-01
  4.668947E-01
  4.714042E-01
  4.698595E-01
  4.736009E-01
  4.689776E-01
  4.704886E-01
  4.667079E-01
  4.710647E-01
  4.691235E-01
  4.724992E-01
  4.675865E-01
  4.682564E-01
  4.625097E-01
  4.642444E-01
  4.608322E-01
  4.655136E-01
  4.649968E-01
  4.714869E-01
  4.704172E-01
  4.737071E-01
  4.680288E-01
  4.676795E-01
  4.612226E-01
  4.629799E-01