# vtk DataFile Version 2.0
title
ASCII
DATASET STRUCTURED_GRID
DIMENSIONS   64   64    1
POINTS   4096  float
  0.000000E+00  0.000000E+00  0.000000E+00
  0.000000E+00  3.906250E-01  0.000000E+00
  0.000000E+00  7.812500E-01  0.000000E+00
  0.000000E+00  1.171875E+00  0.000000E+00
  0.000000E+00  1.562500E+00  0.000000E+00
  0.000000E+00  1.953125E+00  0.000000E+00
  0.000000E+00  2.343750E+00  0.000000E+00
  0.000000E+00  2.734375E+00  0.000000E+00
  0.000000E+00  3.125000E+00  0.000000E+00
  0.000000E+00  3.515625E+00  0.000000E+00
  0.000000E+00  3.906250E+00  0.000000E+00
  0.000000E+00  4.296875E+00  0.000000E+00
  0.000000E+00  4.687500E+00  0.000000E+00
  0.000000E+00  5.078125E+00  0.000000E+00
  0.000000E+00  5.468750E+00  0.000000E+00
  0.000000E+00  5.859375E+00  0.000000E+00
  0.000000E+00  6.250000E+00  0.000000E+00
  0.000000E+00  6.640625E+00  0.000000E+00
  0.000000E+00  7.031250E+00  0.000000E+00
  0.000000E+00  7.421875E+00  0.000000E+00
  0.000000E+00  7.812500E+00  0.000000E+00
  0.000000E+00  8.203125E+00  0.000000E+00
  0.000000E+00  8.593750E+00  0.000000E+00
  0.000000E+00  8.984375E+00  0.000000E+00
  0.000000E+00  9.375000E+00  0.000000E+00
  0.000000E+00  9.765625E+00  0.000000E+00
  0.000000E+00  1.015625E+01  0.000000E+00
  0.000000E+00  1.054688E+01  0.000000E+00
  0.000000E+00  1.093750E+01  0.000000E+00
  0.000000E+00  1.132812E+01  0.000000E+00
  0.000000E+00  1.171875E+01  0.000000E+00
  0.000000E+00  1.210938E+01  0.000000E+00
  0.000000E+00  1.250000E+01  0.000000E+00
  0.000000E+00  1.289062E+01  0.000000E+00
  0.000000E+00  1.328125E+01  0.000000E+00
  0.000000E+00  1.367188E+01  0.000000E+00
  0.000000E+00  1.406250E+01  0.000000E+00
  0.000000E+00  1.445312E+01  0.000000E+00
  0.000000E+00  1.484375E+01  0.000000E+00
  0.000000E+00  1.523438E+01  0.000000E+00
  0.000000E+00  1.562500E+01  0.000000E+00
  0.000000E+00  1.601562E+01  0.000000E+00
  0.000000E+00  1.640625E+01  0.000000E+00
  0.000000E+00  1.679688E+01  0.000000E+00
  0.000000E+00  1.718750E+01  0.000000E+00
  0.000000E+00  1.757812E+01  0.000000E+00
  0.000000E+00  1.796875E+01  0.000000E+00
  0.000000E+00  1.835938E+01  0.000000E+00
  0.000000E+00  1.875000E+01  0.000000E+00
  0.000000E+00  1.914062E+01  0.000000E+00
  0.000000E+00  1.953125E+01  0.000000E+00
  0.000000E+00  1.992188E+01  0.000000E+00
  0.000000E+00  2.031250E+01  0.000000E+00
  0.000000E+00  2.070312E+01  0.000000E+00
  0.000000E+00  2.109375E+01  0.000000E+00
  0.000000E+00  2.148438E+01  0.000000E+00
  0.000000E+00  2.187500E+01  0.000000E+00
  0.000000E+00  2.226562E+01  0.000000E+00
  0.000000E+00  2.265625E+01  0.000000E+00
  0.000000E+00  2.304688E+01  0.000000E+00
  0.000000E+00  2.343750E+01  0.000000E+00
  0.000000E+00  2.382812E+01  0.000000E+00
  0.000000E+00  2.421875E+01  0.000000E+00
  0.000000E+00  2.460938E+01  0.000000E+00
  3.906250E-01  0.000000E+00  0.000000E+00
  3.906250E-01  3.906250E-01  0.000000E+00
  3.906250E-01  7.812500E-01  0.000000E+00
  3.906250E-01  1.171875E+00  0.000000E+00
  3.906250E-01  1.562500E+00  0.000000E+00
  3.906250E-01  1.953125E+00  0.000000E+00
  3.906250E-01  2.343750E+00  0.000000E+00
  3.906250E-01  2.734375E+00  0.000000E+00
  3.906250E-01  3.125000E+00  0.000000E+00
  3.906250E-01  3.515625E+00  0.000000E+00
  3.906250E-01  3.906250E+00  0.000000E+00
  3.906250E-01  4.296875E+00  0.000000E+00
  3.906250E-01  4.687500E+00  0.000000E+00
  3.906250E-01  5.078125E+00  0.000000E+00
  3.906250E-01  5.468750E+00  0.000000E+00
  3.906250E-01  5.859375E+00  0.000000E+00
  3.906250E-01  6.250000E+00  0.000000E+00
  3.906250E-01  6.640625E+00  0.000000E+00
  3.906250E-01  7.031250E+00  0.000000E+00
  3.906250E-01  7.421875E+00  0.000000E+00
  3.906250E-01  7.812500E+00  0.000000E+00
  3.906250E-01  8.203125E+00  0.000000E+00
  3.906250E-01  8.593750E+00  0.000000E+00
  3.906250E-01  8.984375E+00  0.000000E+00
  3.906250E-01  9.375000E+00  0.000000E+00
  3.906250E-01  9.765625E+00  0.000000E+00
  3.906250E-01  1.015625E+01  0.000000E+00
  3.906250E-01  1.054688E+01  0.000000E+00
  3.906250E-01  1.093750E+01  0.000000E+00
  3.906250E-01  1.132812E+01  0.000000E+00
  3.906250E-01  1.171875E+01  0.000000E+00
  3.906250E-01  1.210938E+01  0.000000E+00
  3.906250E-01  1.250000E+01  0.000000E+00
  3.906250E-01  1.289062E+01  0.000000E+00
  3.906250E-01  1.328125E+01  0.000000E+00
  3.906250E-01  1.367188E+01  0.000000E+00
  3.906250E-01  1.406250E+01  0.000000E+00
  3.906250E-01  1.445312E+01  0.000000E+00
  3.906250E-01  1.484375E+01  0.000000E+00
  3.906250E-01  1.523438E+01  0.000000E+00
  3.906250E-01  1.562500E+01  0.000000E+00
  3.906250E-01  1.601562E+01  0.000000E+00
  3.906250E-01  1.640625E+01  0.000000E+00
  3.906250E-01  1.679688E+01  0.000000E+00
  3.906250E-01  1.718750E+01  0.000000E+00
  3.906250E-01  1.757812E+01  0.000000E+00
  3.906250E-01  1.796875E+01  0.000000E+00
  3.906250E-01  1.835938E+01  0.000000E+00
  3.906250E-01  1.875000E+01  0.000000E+00
  3.906250E-01  1.914062E+01  0.000000E+00
  3.906250E-01  1.953125E+01  0.000000E+00
  3.906250E-01  1.992188E+01  0.000000E+00
  3.906250E-01  2.031250E+01  0.000000E+00
  3.906250E-01  2.070312E+01  0.000000E+00
  3.906250E-01  2.109375E+01  0.000000E+00
  3.906250E-01  2.148438E+01  0.000000E+00
  3.906250E-01  2.187500E+01  0.000000E+00
  3.906250E-01  2.226562E+01  0.000000E+00
  3.906250E-01  2.265625E+01  0.000000E+00
  3.906250E-01  2.304688E+01  0.000000E+00
  3.906250E-01  2.343750E+01  0.000000E+00
  3.906250E-01  2.382812E+01  0.000000E+00
  3.906250E-01  2.421875E+01  0.000000E+00
  3.906250E-01  2.460938E+01  0.000000E+00
  7.812500E-01  0.000000E+00  0.000000E+00
  7.812500E-01  3.906250E-01  0.000000E+00
  7.812500E-01  7.812500E-01  0.000000E+00
  7.812500E-01  1.171875E+00  0.000000E+00
  7.812500E-01  1.562500E+00  0.000000E+00
  7.812500E-01  1.953125E+00  0.000000E+00
  7.812500E-01  2.343750E+00  0.000000E+00
  7.812500E-01  2.734375E+00  0.000000E+00
  7.812500E-01  3.125000E+00  0.000000E+00
  7.812500E-01  3.515625E+00  0.000000E+00
  7.812500E-01  3.906250E+00  0.000000E+00
  7.812500E-01  4.296875E+00  0.000000E+00
  7.812500E-01  4.687500E+00  0.000000E+00
  7.812500E-01  5.078125E+00  0.000000E+00
  7.812500E-01  5.468750E+00  0.000000E+00
  7.812500E-01  5.859375E+00  0.000000E+00
  7.812500E-01  6.250000E+00  0.000000E+00
  7.812500E-01  6.640625E+00  0.000000E+00
  7.812500E-01  7.031250E+00  0.000000E+00
  7.812500E-01  7.421875E+00  0.000000E+00
  7.812500E-01  7.812500E+00  0.000000E+00
  7.812500E-01  8.203125E+00  0.000000E+00
  7.812500E-01  8.593750E+00  0.000000E+00
  7.812500E-01  8.984375E+00  0.000000E+00
  7.812500E-01  9.375000E+00  0.000000E+00
  7.812500E-01  9.765625E+00  0.000000E+00
  7.812500E-01  1.015625E+01  0.000000E+00
  7.812500E-01  1.054688E+01  0.000000E+00
  7.812500E-01  1.093750E+01  0.000000E+00
  7.812500E-01  1.132812E+01  0.000000E+00
  7.812500E-01  1.171875E+01  0.000000E+00
  7.812500E-01  1.210938E+01  0.000000E+00
  7.812500E-01  1.250000E+01  0.000000E+00
  7.812500E-01  1.289062E+01  0.000000E+00
  7.812500E-01  1.328125E+01  0.000000E+00
  7.812500E-01  1.367188E+01  0.000000E+00
  7.812500E-01  1.406250E+01  0.000000E+00
  7.812500E-01  1.445312E+01  0.000000E+00
  7.812500E-01  1.484375E+01  0.000000E+00
  7.812500E-01  1.523438E+01  0.000000E+00
  7.812500E-01  1.562500E+01  0.000000E+00
  7.812500E-01  1.601562E+01  0.000000E+00
  7.812500E-01  1.640625E+01  0.000000E+00
  7.812500E-01  1.679688E+01  0.000000E+00
  7.812500E-01  1.718750E+01  0.000000E+00
  7.812500E-01  1.757812E+01  0.000000E+00
  7.812500E-01  1.796875E+01  0.000000E+00
  7.812500E-01  1.835938E+01  0.000000E+00
  7.812500E-01  1.875000E+01  0.000000E+00
  7.812500E-01  1.914062E+01  0.000000E+00
  7.812500E-01  1.953125E+01  0.000000E+00
  7.812500E-01  1.992188E+01  0.000000E+00
  7.812500E-01  2.031250E+01  0.000000E+00
  7.812500E-01  2.070312E+01  0.000000E+00
  7.812500E-01  2.109375E+01  0.000000E+00
  7.812500E-01  2.148438E+01  0.000000E+00
  7.812500E-01  2.187500E+01  0.000000E+00
  7.812500E-01  2.226562E+01  0.000000E+00
  7.812500E-01  2.265625E+01  0.000000E+00
  7.812500E-01  2.304688E+01  0.000000E+00
  7.812500E-01  2.343750E+01  0.000000E+00
  7.812500E-01  2.382812E+01  0.000000E+00
  7.812500E-01  2.421875E+01  0.000000E+00
  7.812500E-01  2.460938E+01  0.000000E+00
  1.171875E+00  0.000000E+00  0.000000E+00
  1.171875E+00  3.906250E-01  0.000000E+00
  1.171875E+00  7.812500E-01  0.000000E+00
  1.171875E+00  1.171875E+00  0.000000E+00
  1.171875E+00  1.562500E+00  0.000000E+00
  1.171875E+00  1.953125E+00  0.000000E+00
  1.171875E+00  2.343750E+00  0.000000E+00
  1.171875E+00  2.734375E+00  0.000000E+00
  1.171875E+00  3.125000E+00  0.000000E+00
  1.171875E+00  3.515625E+00  0.000000E+00
  1.171875E+00  3.906250E+00  0.000000E+00
  1.171875E+00  4.296875E+00  0.000000E+00
  1.171875E+00  4.687500E+00  0.000000E+00
  1.171875E+00  5.078125E+00  0.000000E+00
  1.171875E+00  5.468750E+00  0.000000E+00
  1.171875E+00  5.859375E+00  0.000000E+00
  1.171875E+00  6.250000E+00  0.000000E+00
  1.171875E+00  6.640625E+00  0.000000E+00
  1.171875E+00  7.031250E+00  0.000000E+00
  1.171875E+00  7.421875E+00  0.000000E+00
  1.171875E+00  7.812500E+00  0.000000E+00
  1.171875E+00  8.203125E+00  0.000000E+00
  1.171875E+00  8.593750E+00  0.000000E+00
  1.171875E+00  8.984375E+00  0.000000E+00
  1.171875E+00  9.375000E+00  0.000000E+00
  1.171875E+00  9.765625E+00  0.000000E+00
  1.171875E+00  1.015625E+01  0.000000E+00
  1.171875E+00  1.054688E+01  0.000000E+00
  1.171875E+00  1.093750E+01  0.000000E+00
  1.171875E+00  1.132812E+01  0.000000E+00
  1.171875E+00  1.171875E+01  0.000000E+00
  1.171875E+00  1.210938E+01  0.000000E+00
  1.171875E+00  1.250000E+01  0.000000E+00
  1.171875E+00  1.289062E+01  0.000000E+00
  1.171875E+00  1.328125E+01  0.000000E+00
  1.171875E+00  1.367188E+01  0.000000E+00
  1.171875E+00  1.406250E+01  0.000000E+00
  1.171875E+00  1.445312E+01  0.000000E+00
[...]
POINT_DATA   4096
SCALARS CON  float  1
LOOKUP_TABLE default
  4.711313E-01
  4.746076E-01
  4.846388E-01
  4.795667E-01
  4.795552E-01
  4.693316E-01
  4.717559E-01
  4.690057E-01
  4.779132E-01
  4.758360E-01
  4.793561E-01
  4.697986E-01
  4.691232E-01
  4.615867E-01
  4.675865E-01
  4.672752E-01
  4.768743E-01
  4.746820E-01
  4.786645E-01
  4.705520E-01
  4.711357E-01
  4.625983E-01
  4.640571E-01
  4.564768E-01
  4.591761E-01
  4.546182E-01
  4.626611E-01
  4.641231E-01
  4.755874E-01
  4.749917E-01
  4.797347E-01
  4.717909E-01
  4.732457E-01
  4.675884E-01
  4.739995E-01
  4.713861E-01
  4.761622E-01
  4.683731E-01
  4.682987E-01
  4.591513E-01
  4.611529E-01
  4.551597E-01
  4.588012E-01
  4.526017E-01
  4.562344E-01
  4.531789E-01
  4.640698E-01
  4.696436E-01
  4.849038E-01
  4.849852E-01
  4.856769E-01
  4.698450E-01
  4.631989E-01
  4.537335E-01
  4.637089E-01
  4.728692E-01
  4.937260E-01
  4.988250E-01
  5.026356E-01
  4.873063E-01
  4.781580E-01
  4.622653E-01
  4.621189E-01
  4.594325E-01
  4.725593E-01
  4.779476E-01
  4.892952E-01
  4.870389E-01
  4.857456E-01
  4.729150E-01
  4.691269E-01
  4.626539E-01
  4.692551E-01
  4.710024E-01
  4.795085E-01
  4.765303E-01
  4.774069E-01
  4.687985E-01
  4.689851E-01
  4.644500E-01
  4.704779E-01
  4.698162E-01
  4.754602E-01
  4.705385E-01
  4.710145E-01
  4.633021E-01
  4.645570E-01
  4.600346E-01
  4.644645E-01
  4.616687E-01
  4.667178E-01
  4.647755E-01
  4.716551E-01
  4.715158E-01
  4.783733E-01
  4.751730E-01
  4.768373E-01
  4.687765E-01
  4.682938E-01
  4.617738E-01
  4.652809E-01
  4.626889E-01
  4.676561E-01
  4.631895E-01
  4.640840E-01
  4.556912E-01
  4.547845E-01
  4.477278E-01
  4.511094E-01
  4.508696E-01
  4.624856E-01
  4.692333E-01
  4.825616E-01
  4.821474E-01
  4.815158E-01
  4.681992E-01
  4.643614E-01
  4.605577E-01
  4.737343E-01
  4.849226E-01
  5.019442E-01
  5.019513E-01
  4.989567E-01
  4.817650E-01
  4.727538E-01
  4.608151E-01
  4.623501E-01
  4.615292E-01
  4.629925E-01
  4.774171E-01
  4.905242E-01
  4.921354E-01
  4.862029E-01
  4.733376E-01
  4.648558E-01
  4.604997E-01
  4.646633E-01
  4.698619E-01
  4.765274E-01
  4.773645E-01
  4.764967E-01
  4.714108E-01
  4.691157E-01
  4.666992E-01
  4.684610E-01
  4.688230E-01
  4.710254E-01
  4.700429E-01
  4.704118E-01
  4.680773E-01
  4.676850E-01
  4.648899E-01
  4.643423E-01
  4.622111E-01
  4.634887E-01
  4.637784E-01
  4.666278E-01
  4.663428E-01
  4.666911E-01
  4.637871E-01
  4.634881E-01
  4.625835E-01
  4.655481E-01
  4.667435E-01
  4.689843E-01
  4.669619E-01
  4.653282E-01
  4.604735E-01
  4.575743E-01
  4.527324E-01
  4.507494E-01
  4.479179E-01
  4.496543E-01
  4.527196E-01
  4.617202E-01
  4.706668E-01
  4.802902E-01
  4.820434E-01
  4.788695E-01
  4.689944E-01
  4.625123E-01
  4.603552E-01
  4.691923E-01
  4.822759E-01
  4.972805E-01
  5.019002E-01
  4.969563E-01
  4.806661E-01
  4.643478E-01
  4.501209E-01
  4.462952E-01
  4.496402E-01
  4.635829E-01
  4.787188E-01
  4.868415E-01
  4.918333E-01
  4.819467E-01
  4.707259E-01
  4.555493E-01
  4.515726E-01
  4.513240E-01
  4.622884E-01
  4.704005E-01
  4.799764E-01
  4.783670E-01
  4.759814E-01
  4.668534E-01
  4.646303E-01
  4.619858E-01
  4.678572E-01
  4.700838E-01
  4.753663E-01
  4.728879E-01
  4.732041E-01
  4.685834E-01
  4.697019E-01
  4.665985E-01
  4.677268E-01
  4.631134E-01
  4.631730E-01
  4.599622E-01
  4.638004E-01
  4.643113E-01
  4.688125E-01
  4.658202E-01
  4.648031E-01
  4.582493E-01
  4.584427E-01
  4.574509E-01
  4.638861E-01
  4.654146E-01
  4.687400E-01
  4.634335E-01
  4.606799E-01
  4.538214E-01
  4.545990E-01
  4.542813E-01
  4.616548E-01
  4.657463E-01
  4.741572E-01
  4.750536E-01
  4.763385E-01
  4.686594E-01
  4.645070E-01
  4.586363E-01
  4.637035E-01
  4.702550E-01
  4.840171E-01
  4.892959E-01
  4.910867E-01
  4.797663E-01
  4.695318E-01
  4.561327E-01
  4.521806E-01
  4.490462E-01
  4.561081E-01
  4.580035E-01
  4.768378E-01
  4.818344E-01
  4.883976E-01
  4.747202E-01
  4.666224E-01
  4.502116E-01
  4.506285E-01
  4.482836E-01
  4.611768E-01
  4.648547E-01
  4.759649E-01
  4.716600E-01
  4.737331E-01
  4.643180E-01
  4.670370E-01
  4.625568E-01
  4.710278E-01
  4.700819E-01
  4.784946E-01
  4.741050E-01
  4.776559E-01
  4.690310E-01
  4.700466E-01
  4.608737E-01
  4.629142E-01
  4.560608E-01
  4.610082E-01
  4.567902E-01
  4.631746E-01
  4.588349E-01
  4.641236E-01
  4.587187E-01
  4.640371E-01
  4.600506E-01
  4.673143E-01
  4.643754E-01
  4.708216E-01
  4.651901E-01
  4.681721E-01
  4.598656E-01
  4.624085E-01
  4.565181E-01
  4.633250E-01
  4.618254E-01
  4.714904E-01
  4.702043E-01
  4.775437E-01
  4.718488E-01
  4.737390E-01
  4.631112E-01
  4.624651E-01
  4.535997E-01
  4.590969E-01
  4.590785E-01
  4.724270E-01
  4.746640E-01
  4.825586E-01
  4.733399E-01
  4.693637E-01
  4.535468E-01
  4.504800E-01
  4.427608E-01
  4.522617E-01
  4.644722E-01
  4.767559E-01
  4.761553E-01
  4.821961E-01
  4.694241E-01
  4.637445E-01
  4.470126E-01
  4.470589E-01
  4.431378E-01
  4.569510E-01
  4.616213E-01
  4.753114E-01
  4.712787E-01
  4.733727E-01
  4.618427E-01
  4.644721E-01
  4.606492E-01
  4.729103E-01
  4.744818E-01
  4.846411E-01
  4.777498E-01
  4.785334E-01
  4.665067E-01
  4.675222E-01
  4.587763E-01
  4.626117E-01
  4.551861E-01
  4.601578E-01
  4.557417E-01
  4.657145E-01
  4.656104E-01
  4.757723E-01
  4.701865E-01
  4.721209E-01
  4.609464E-01
  4.637212E-01
  4.593144E-01
  4.698661E-01
  4.686777E-01
  4.759931E-01
  4.679892E-01
  4.705185E-01
  4.635066E-01
  4.717192E-01
  4.706614E-01
  4.807506E-01
  4.759559E-01
  4.790995E-01
  4.677586E-01
  4.671687E-01
  4.556862E-01
  4.579341E-01
  4.518240E-01
  4.605751E-01
  4.598880E-01
  4.704276E-01
  4.664078E-01
  4.703929E-01
  4.605184E-01
  4.626592E-01
  4.551664E-01
  4.611627E-01
  4.568751E-01
  4.654618E-01
  4.624276E-01
  4.723800E-01
  4.723869E-01
  4.767389E-01
  4.672880E-01
  4.637023E-01
  4.526488E-01
  4.541885E-01
  4.520813E-01
  4.618078E-01
  4.634819E-01
  4.713744E-01
  4.669080E-01
  4.685178E-01
  4.617377E-01
  4.663332E-01
  4.660502E-01
  4.768454E-01
  4.786606E-01
  4.858069E-01
  4.793019E-01
  4.773845E-01
  4.650484E-01
  4.620572E-01
  4.529021E-01
  4.553244E-01
  4.521534E-01
  4.596878E-01
  4.597756E-01
  4.683307E-01
  4.672262E-01
  4.732450E-01
  4.693447E-01
  4.737118E-01
  4.700315E-01
  4.758154E-01
  4.730194E-01
  4.776314E-01
  4.715406E-01
  4.724626E-01
  4.647710E-01
  4.677923E-01
  4.655059E-01
  4.744993E-01
  4.753086E-01
  4.825463E-01
  4.772783E-01
  4.773591E-01
  4.672956E-01
  4.662769E-01
  4.580369E-01
  4.597749E-01
  4.541887E-01
  4.582832E-01
  4.550607E-01
  4.614335E-01
  4.596862E-01
  4.661296E-01
  4.628183E-01
  4.666293E-01
  4.606247E-01
  4.627989E-01
  4.573301E-01
  4.627238E-01
  4.677224E-01
  4.687971E-01
  4.686667E-01
  4.716350E-01
  4.692350E-01
  4.669570E-01
  4.604759E-01
  4.588195E-01
  4.581131E-01
  4.642490E-01
  4.686326E-01
  4.738029E-01
  4.714800E-01
  4.686790E-01
  4.627344E-01
  4.635585E-01
  4.668933E-01
  4.771925E-01
  4.837776E-01
  4.879581E-01
  4.817480E-01
  4.738135E-01
  4.626804E-01
  4.580774E-01
  4.547948E-01
  4.575299E-01
  4.584886E-01
  4.629161E-01
  4.651602E-01
  4.717725E-01
  4.759141E-01
  4.815730E-01
  4.805635E-01
  4.789917E-01
  4.730580E-01
  4.719951E-01
  4.711607E-01
  4.753748E-01
  4.755829E-01
  4.758953E-01
  4.708241E-01
  4.692723E-01
  4.677610E-01
  4.727184E-01
  4.757592E-01
  4.797700E-01
  4.767820E-01
  4.737083E-01
  4.667227E-01
  4.640101E-01
  4.603293E-01
  4.616129E-01
  4.612948E-01
  4.646818E-01
  4.646298E-01
  4.660740E-01
  4.626570E-01
  4.616912E-01
  4.592400E-01
  4.627391E-01
  4.654082E-01
  4.708858E-01
  4.708331E-01
  4.711643E-01
  4.607519E-01
  4.615951E-01
  4.657897E-01
  4.688131E-01
  4.719777E-01
  4.718025E-01
  4.719676E-01
  4.709216E-01
  4.724831E-01
  4.733887E-01
  4.751873E-01
  4.734875E-01
  4.709569E-01
  4.661887E-01
  4.646155E-01
  4.652833E-01
  4.712771E-01
  4.777325E-01
  4.841255E-01
  4.842737E-01
  4.801177E-01
  4.706548E-01
  4.623517E-01
  4.554606E-01
  4.545114E-01
  4.565170E-01
  4.627936E-01
  4.680372E-01
  4.730213E-01
  4.738936E-01
  4.741549E-01
  4.723664E-01
  4.729680E-01
  4.738984E-01
  4.778314E-01
  4.804024E-01
  4.825037E-01
  4.797561E-01
  4.752978E-01
  4.681038E-01
  4.637297E-01
  4.612202E-01
  4.637401E-01
  4.669192E-01
  4.713434E-01
  4.722889E-01
  4.724048E-01
  4.699743E-01
  4.694283E-01
  4.684858E-01
  4.695588E-01
  4.687664E-01
  4.685344E-01
  4.662361E-01
  4.655651E-01
  4.643091E-01
  4.656621E-01
  4.664732E-01
  4.689830E-01
  4.693712E-01
  4.697770E-01
  4.670101E-01
  4.645875E-01
  4.610164E-01
  4.610480E-01
  4.578272E-01
  4.619548E-01
  4.665026E-01
  4.740765E-01
  4.759925E-01
  4.773998E-01
  4.742972E-01
  4.749991E-01
  4.747888E-01
  4.782189E-01
  4.769783E-01
  4.752716E-01
  4.681834E-01
  4.645611E-01
  4.620097E-01
  4.677156E-01
  4.741302E-01
  4.824976E-01
  4.824245E-01
  4.784090E-01
  4.676059E-01
  4.608825E-01
  4.563105E-01
  4.603302E-01
  4.651322E-01
  4.731219E-01
  4.758896E-01
  4.785940E-01
  4.765881E-01
  4.771406E-01
  4.749282E-01
  4.753419E-01
  4.723976E-01
  4.725495E-01
  4.709727E-01
  4.735092E-01
  4.730648E-01
  4.736980E-01
  4.690164E-01
  4.660427E-01
  4.612602E-01
  4.620260E-01
  4.624797E-01
  4.667591E-01
  4.674002E-01
  4.696557E-01
  4.684808E-01
  4.705213E-01
  4.700742E-01
  4.723450E-01
  4.712337E-01
  4.729159E-01
  4.721620E-01
  4.745894E-01
  4.734449E-01
  4.737438E-01
  4.701877E-01
  4.701324E-01
  4.689865E-01
  4.719652E-01
  4.711757E-01
  4.705149E-01
  4.643928E-01
  4.525105E-01
  4.537343E-01
  4.593163E-01
  4.658417E-01
  4.731489E-01
  4.774099E-01
  4.798979E-01
  4.793678E-01
  4.790596E-01
  4.777002E-01
  4.769027E-01
  4.738765E-01
  4.703747E-01
  4.655250E-01
  4.632152E-01
  4.630749E-01
  4.672218E-01
  4.721716E-01
  4.770937E-01
  4.773557E-01
  4.740689E-01
  4.669307E-01
  4.611066E-01
  4.577253E-01
  4.603659E-01
  4.666050E-01
  4.756198E-01
  4.814313E-01
  4.828781E-01
  4.777433E-01
  4.707410E-01
  4.638821E-01
  4.620793E-01
  4.640514E-01
  4.700190E-01
  4.747777E-01
  4.771609E-01
  4.739650E-01
  4.684329E-01
  4.614434E-01
  4.575738E-01
  4.559888E-01
  4.580015E-01
  4.601312E-01
  4.630046E-01
  4.643884E-01
  4.668377E-01
  4.690430E-01
  4.727255E-01
  4.747366E-01
  4.757263E-01
  4.734646E-01
  4.710824E-01
  4.685578E-01
  4.693454E-01
  4.716957E-01
  4.763806E-01
  4.794971E-01
  4.812100E-01
  4.786675E-01
  4.740693E-01
  4.666296E-01
  4.600268E-01
  4.541768E-01
  4.555521E-01
  4.551791E-01
  4.574211E-01
  4.649629E-01
  4.709385E-01
  4.760134E-01
  4.751810E-01
  4.737721E-01
  4.706254E-01
  4.712603E-01
  4.713159E-01
  4.725497E-01
  4.693898E-01
  4.658945E-01
  4.605064E-01
  4.599200E-01
  4.618903E-01
  4.691431E-01
  4.743602E-01
  4.775156E-01
  4.732488E-01
  4.674962E-01
  4.606541E-01
  4.601698E-01
  4.632875E-01
  4.719563E-01
  4.786655E-01
  4.837157E-01
  4.818369E-01
  4.782325E-01
  4.717184E-01
  4.681819E-01
  4.643687E-01
  4.638124E-01
  4.624433E-01
  4.639961E-01
  4.643179E-01
  4.663794E-01
  4.653946E-01
  4.648826E-01
  4.617221E-01
  4.609876E-01
  4.598080E-01
  4.620229E-01
  4.631529E-01
  4.663620E-01
  4.676333E-01
  4.707575E-01
  4.714227E-01
  4.725822E-01
  4.699778E-01
  4.683748E-01
  4.659504E-01
  4.682220E-01
  4.713867E-01
  4.774081E-01
  4.799711E-01
  4.816090E-01
  4.789769E-01
  4.773619E-01
  4.736679E-01
  4.713140E-01
  4.657381E-01
  4.611296E-01
  4.529644E-01
  4.568063E-01
  4.587342E-01
  4.654371E-01
  4.679945E-01
  4.729359E-01
  4.719008E-01
  4.729927E-01
  4.693726E-01
  4.695564E-01
  4.659665E-01
  4.660628E-01
  4.620093E-01
  4.620345E-01
  4.594256E-01
  4.626864E-01
  4.642089E-01
  4.708278E-01
  4.731354E-01
  4.769641E-01
  4.733495E-01
  4.705394E-01
  4.628634E-01
  4.608818E-01
  4.591824E-01
  4.658973E-01
  4.712861E-01
  4.791643E-01
  4.781619E-01
  4.752742E-01
  4.653087E-01
  4.602533E-01
  4.556519E-01
  4.598165E-01
  4.630807E-01
  4.697579E-01
  4.693405E-01
  4.690070E-01
  4.627400E-01
  4.608478E-01
  4.573994E-01
  4.602697E-01
  4.607247E-01
  4.651314E-01
  4.650803E-01
  4.684444E-01
  4.679787E-01
  4.714769E-01
  4.704903E-01
  4.717725E-01
  4.671906E-01
  4.653504E-01
  4.604024E-01
  4.619648E-01
  4.632819E-01
  4.713776E-01
  4.763453E-01
  4.831698E-01
  4.819581E-01
  4.801458E-01
  4.713250E-01
  4.655909E-01
  4.573495E-01
  4.555829E-01
  4.629914E-01
  4.634783E-01
  4.618803E-01
  4.659102E-01
  4.667170E-01
  4.700535E-01
  4.674130E-01
  4.670511E-01
  4.630003E-01
  4.640484E-01
  4.625614E-01
  4.649592E-01
  4.625937E-01
  4.630053E-01
  4.599039E-01
  4.625777E-01
  4.645167E-01
  4.725789E-01
  4.767319E-01
  4.815723E-01
  4.777242E-01
  4.736654E-01
  4.647263E-01
  4.617851E-01
  4.591071E-01
  4.638025E-01
  4.662252E-01
  4.713969E-01
  4.702620E-01
  4.707355E-01
  4.666336E-01
  4.667138E-01
  4.636158E-01
  4.645088E-01
  4.616851E-01
  4.630453E-01
  4.615028E-01
  4.646055E-01
  4.641702E-01
  4.670278E-01
  4.654327E-01
  4.674480E-01
  4.661891E-01
  4.694014E-01
  4.690217E-01
  4.718957E-01
  4.699443E-01
  4.706564E-01
  4.665264E-01
  4.654070E-01
  4.604411E-01
  4.604470E-01
  4.591910E-01
  4.645818E-01
  4.679185E-01
  4.743959E-01
  4.742348E-01
  4.745460E-01
  4.691900E-01
  4.680487E-01
  4.649114E-01
  4.670459E-01
  4.654804E-01
  4.666095E-01
  4.664091E-01
  4.692920E-01
  4.676261E-01
  4.679161E-01
  4.660874E-01
  4.679712E-01
  4.676740E-01
  4.695797E-01
  4.675616E-01
  4.668948E-01
  4.628169E-01
  4.616934E-01
  4.591931E-01
  4.612991E-01
  4.627051E-01
  4.681464E-01
  4.713824E-01
  4.770292E-01
  4.791064E-01
  4.822302E-01
  4.798968E-01
  4.768235E-01
  4.681993E-01
  4.616188E-01
  4.546456E-01
  4.546005E-01
  4.559957E-01
  4.617301E-01
  4.632940E-01
  4.643208E-01
  4.604047E-01
  4.596551E-01
  4.591030E-01
  4.643573E-01
  4.681244E-01
  4.729292E-01
  4.716039E-01
  4.699447E-01
  4.647085E-01
  4.635390E-01
  4.622093E-01
  4.657466E-01
  4.675471E-01
  4.715605E-01
  4.714518E-01
  4.723417E-01
  4.691668E-01
  4.679409E-01
  4.639709E-01
  4.632087E-01
  4.607397E-01
  4.621004E-01
  4.618350E-01
  4.648701E-01
  4.653163E-01
  4.680108E-01
  4.671052E-01
  4.675586E-01
  4.638786E-01
  4.620308E-01
  4.580637E-01
  4.588147E-01
  4.594872E-01
  4.644341E-01
  4.798769E-01
  4.780959E-01
  4.728048E-01
  4.692378E-01
  4.663834E-01
  4.665049E-01
  4.660978E-01
  4.667162E-01
  4.656094E-01
  4.654280E-01
  4.640181E-01
  4.640495E-01
  4.632572E-01
  4.643604E-01
  4.652353E-01
  4.685676E-01
  4.718375E-01
  4.769498E-01
  4.803047E-01
  4.829090E-01
  4.810410E-01
  4.769657E-01
  4.693746E-01
  4.628690E-01
  4.569637E-01
  4.549752E-01
  4.541284E-01
  4.559060E-01
  4.571323E-01
  4.601279E-01
  4.626145E-01
  4.667928E-01
  4.692435E-01
  4.712683E-01
  4.699873E-01
  4.686496E-01
  4.662514E-01
  4.662872E-01
  4.662409E-01
  4.678121E-01
  4.680261E-01
  4.695434E-01
  4.703491E-01
  4.727220E-01
  4.731019E-01
  4.726832E-01
  4.686252E-01
  4.643904E-01
  4.593544E-01
  4.577196E-01
  4.580160E-01
  4.625456E-01
  4.675109E-01
  4.730451E-01
  4.742058E-01
  4.720168E-01
  4.645425E-01
  4.567939E-01
  4.497911E-01
  4.487864E-01
  4.522955E-01
  4.613945E-01
  4.704557E-01
  4.782299E-01
  4.822225E-01
  4.820316E-01
  4.770646E-01
  4.702808E-01
  4.656554E-01
  4.645058E-01
  4.665332E-01
  4.690631E-01
  4.701645E-01
  4.684469E-01
  4.651650E-01
  4.619703E-01
  4.612169E-01
  4.632297E-01
  4.675010E-01
  4.716521E-01
  4.743853E-01
  4.750546E-01
  4.751915E-01
  4.754945E-01
  4.760588E-01
  4.748263E-01
  4.707485E-01
  4.638434E-01
  4.569285E-01
  4.523760E-01
  4.518091E-01
  4.538314E-01
  4.566108E-01
  4.581868E-01
  4.593035E-01
  4.612787E-01
  4.657554E-01
  4.716355E-01
  4.768599E-01
  4.784033E-01
  4.757771E-01
  4.700416E-01
  4.644092E-01
  4.609375E-01
  4.610402E-01
  4.638079E-01
  4.680639E-01
  4.713903E-01
  4.724521E-01
  4.701201E-01
  4.655337E-01
  4.602386E-01
  4.569294E-01
  4.568429E-01
  4.605908E-01
  4.663398E-01
  4.718237E-01
  4.739887E-01
  4.721038E-01
  4.667149E-01
  4.604339E-01
  4.548315E-01
  4.513362E-01
  4.501186E-01
  4.523100E-01
  4.581254E-01
  4.672181E-01
  4.763742E-01
  4.894961E-01
  4.839867E-01
  4.775850E-01
  4.686510E-01
  4.649696E-01
  4.617622E-01
  4.632492E-01
  4.627657E-01
  4.645397E-01
  4.630813E-01
  4.640388E-01
  4.627987E-01
  4.650047E-01
  4.652941E-01
  4.682594E-01
  4.678821E-01
  4.691788E-01
  4.673720E-01
  4.685701E-01
  4.679696E-01
  4.704123E-01
  4.696093E-01
  4.699458E-01
  4.661279E-01
  4.642656E-01
  4.601170E-01
  4.595212E-01
  4.574681E-01
  4.594261E-01
  4.605928E-01
  4.663430E-01
  4.706120E-01
  4.767625E-01
  4.774260E-01
  4.770226E-01
  4.713043E-01
  4.678722E-01
  4.633424E-01
  4.634369E-01
  4.623152E-01
  4.646354E-01
  4.651789E-01
  4.691973E-01
  4.705356E-01
  4.726521E-01
  4.687615E-01
  4.644228E-01
  4.566065E-01
  4.535110E-01
  4.521148E-01
  4.580316E-01
  4.645617E-01
  4.739307E-01
  4.775064E-01
  4.784318E-01
  4.714534E-01
  4.640521E-01
  4.542820E-01
  4.505469E-01
  4.496899E-01
  4.572515E-01
  4.664481E-01
  4.791751E-01
  4.860687E-01
  4.818019E-01
  4.780374E-01
  4.760901E-01
  4.663937E-01
  4.640090E-01
  4.588785E-01
  4.625662E-01
  4.614047E-01
  4.652281E-01
  4.613226E-01
  4.623752E-01
  4.583474E-01
  4.624970E-01
  4.628453E-01
  4.694064E-01
  4.677662E-01
  4.686075E-01
  4.611988E-01
  4.604043E-01
  4.569954E-01
  4.630996E-01
  4.646932E-01
  4.705942E-01
  4.673079E-01
  4.677564E-01
  4.623806E-01
  4.647194E-01
  4.626689E-01
  4.667389E-01
  4.641762E-01
  4.675277E-01
  4.663854E-01
  4.732957E-01
  4.750129E-01
  4.809219E-01
  4.768414E-01
  4.746421E-01
  4.643929E-01
  4.609948E-01
  4.549639E-01
  4.589327E-01
  4.602998E-01
  4.688466E-01
  4.699974E-01
  4.734876E-01
  4.667441E-01
  4.632693E-01
  4.540732E-01
  4.537934E-01
  4.521104E-01
  4.602463E-01
  4.641354E-01
  4.725799E-01
  4.715022E-01
  4.729345E-01
  4.669026E-01
  4.675864E-01
  4.638432E-01
  4.668214E-01
  4.637656E-01
  4.669455E-01
  4.658404E-01
  4.730541E-01
  4.753360E-01
  4.793221E-01
  4.720954E-01
  4.726218E-01
  4.638158E-01
  4.648252E-01
  4.577583E-01
  4.605445E-01
  4.548691E-01
  4.588183E-01
  4.545820E-01
  4.605228E-01
  4.585973E-01
  4.663816E-01
  4.646212E-01
  4.701097E-01
  4.637796E-01
  4.643609E-01
  4.554359E-01
  4.572213E-01
  4.529762E-01
  4.606205E-01
  4.608533E-01
  4.700732E-01
  4.688333E-01
  4.750460E-01
  4.707141E-01
  4.745292E-01
  4.687238E-01
  4.724027E-01
  4.684189E-01
  4.755715E-01
  4.747649E-01
  4.820858E-01
  4.769605E-01
  4.771600E-01
  4.660271E-01
  4.646953E-01
  4.570135E-01
  4.613638E-01
  4.587497E-01
  4.663408E-01
  4.656490E-01
  4.743315E-01
  4.727294E-01
  4.772131E-01
  4.684523E-01
  4.659339E-01
  4.543087E-01
  4.545606E-01
  4.501419E-01
  4.585771E-01
  4.600496E-01
  4.704468E-01
  4.700141E-01
  4.766254E-01
  4.725419E-01
  4.768228E-01
  4.716764E-01
  4.756334E-01
  4.706636E-01
  4.755399E-01
  4.722518E-01
  4.786395E-01
  4.752825E-01
  4.667780E-01
  4.650328E-01
  4.707094E-01
  4.645539E-01
  4.665176E-01
  4.595960E-01
  4.631950E-01
  4.583027E-01
  4.625837E-01
  4.570470E-01
  4.608840E-01
  4.567465E-01
  4.639094E-01
  4.630808E-01
  4.708196E-01
  4.661417E-01
  4.670820E-01
  4.567031E-01
  4.568729E-01
  4.517005E-01
  4.599799E-01
  4.611390E-01
  4.708348E-01
  4.686921E-01
  4.739354E-01
  4.694687E-01
  4.750413E-01
  4.713666E-01
  4.759853E-01
  4.697381E-01
  4.724909E-01
  4.672043E-01
  4.732672E-01
  4.708294E-01
  4.765380E-01
  4.699915E-01
  4.700511E-01
  4.598468E-01
  4.605491E-01
  4.555466E-01
  4.638467E-01
  4.656904E-01
  4.771829E-01
  4.765676E-01
  4.806805E-01
  4.708635E-01
  4.683574E-01
  4.576221E-01
  4.594821E-01