# vtk DataFile Version 2.0
title
ASCII
DATASET STRUCTURED_GRID
DIMENSIONS   64   64    1
POINTS   4096  float
  0.000000E+00  0.000000E+00  0.000000E+00
  0.000000E+00  3.906250E-01  0.000000E+00
  0.000000E+00  7.812500E-01  0.000000E+00
  0.000000E+00  1.171875E+00  0.000000E+00
  0.000000E+00  1.562500E+00  0.000000E+00
  0.000000E+00  1.953125E+00  0.000000E+00
  0.000000E+00  2.343750E+00  0.000000E+00
  0.000000E+00  2.734375E+00  0.000000E+00
  0.000000E+00  3.125000E+00  0.000000E+00
  0.000000E+00  3.515625E+00  0.000000E+00
  0.000000E+00  3.906250E+00  0.000000E+00
  0.000000E+00  4.296875E+00  0.000000E+00
  0.000000E+00  4.687500E+00  0.000000E+00
  0.000000E+00  5.078125E+00  0.000000E+00
  0.000000E+00  5.468750E+00  0.000000E+00
  0.000000E+00  5.859375E+00  0.000000E+00
  0.000000E+00  6.250000E+00  0.000000E+00
  0.000000E+00  6.640625E+00  0.000000E+00
  0.000000E+00  7.031250E+00  0.000000E+00
  0.000000E+00  7.421875E+00  0.000000E+00
  0.000000E+00  7.812500E+00  0.000000E+00
  0.000000E+00  8.203125E+00  0.000000E+00
  0.000000E+00  8.593750E+00  0.000000E+00
  0.000000E+00  8.984375E+00  0.000000E+00
  0.000000E+00  9.375000E+00  0.000000E+00
  0.000000E+00  9.765625E+00  0.000000E+00
  0.000000E+00  1.015625E+01  0.000000E+00
  0.000000E+00  1.054688E+01  0.000000E+00
  0.000000E+00  1.093750E+01  0.000000E+00
  0.000000E+00  1.132812E+01  0.000000E+00
  0.000000E+00  1.171875E+01  0.000000E+00
  0.000000E+00  1.210938E+01  0.000000E+00
  0.000000E+00  1.250000E+01  0.000000E+00
  0.000000E+00  1.289062E+01  0.000000E+00
  0.000000E+00  1.328125E+01  0.000000E+00
  0.000000E+00  1.367188E+01  0.000000E+00
  0.000000E+00  1.406250E+01  0.000000E+00
  0.000000E+00  1.445312E+01  0.000000E+00
  0.000000E+00  1.484375E+01  0.000000E+00
  0.000000E+00  1.523438E+01  0.000000E+00
  0.000000E+00  1.562500E+01  0.000000E+00
  0.000000E+00  1.601562E+01  0.000000E+00
  0.000000E+00  1.640625E+01  0.000000E+00
  0.000000E+00  1.679688E+01  0.000000E+00
  0.000000E+00  1.718750E+01  0.000000E+00
  0.000000E+00  1.757812E+01  0.000000E+00
  0.000000E+00  1.796875E+01  0.000000E+00
  0.000000E+00  1.835938E+01  0.000000E+00
  0.000000E+00  1.875000E+01  0.000000E+00
  0.000000E+00  1.914062E+01  0.000000E+00
  0.000000E+00  1.953125E+01  0.000000E+00
  0.000000E+00  1.992188E+01  0.000000E+00
  0.000000E+00  2.031250E+01  0.000000E+00
  0.000000E+00  2.070312E+01  0.000000E+00
  0.000000E+00  2.109375E+01  0.000000E+00
  0.000000E+00  2.148438E+01  0.000000E+00
  0.000000E+00  2.187500E+01  0.000000E+00
  0.000000E+00  2.226562E+01  0.000000E+00
  0.000000E+00  2.265625E+01  0.000000E+00
  0.000000E+00  2.304688E+01  0.000000E+00
  0.000000E+00  2.343750E+01  0.000000E+00
  0.000000E+00  2.382812E+01  0.000000E+00
  0.000000E+00  2.421875E+01  0.000000E+00
  0.000000E+00  2.460938E+01  0.000000E+00
  3.906250E-01  0.000000E+00  0.000000E+00
  3.906250E-01  3.906250E-01  0.000000E+00
  3.906250E-01  7.812500E-01  0.000000E+00
  3.906250E-01  1.171875E+00  0.000000E+00
  3.906250E-01  1.562500E+00  0.000000E+00
  3.906250E-01  1.953125E+00  0.000000E+00
  3.906250E-01  2.343750E+00  0.000000E+00
  3.906250E-01  2.734375E+00  0.000000E+00
  3.906250E-01  3.125000E+00  0.000000E+00
  3.906250E-01  3.515625E+00  0.000000E+00
  3.906250E-01  3.906250E+00  0.000000E+00
  3.906250E-01  4.296875E+00  0.000000E+00
  3.906250E-01  4.687500E+00  0.000000E+00
  3.906250E-01  5.078125E+00  0.000000E+00
  3.906250E-01  5.468750E+00  0.000000E+00
  3.906250E-01  5.859375E+00  0.000000E+00
  3.906250E-01  6.250000E+00  0.000000E+00
  3.906250E-01  6.640625E+00  0.000000E+00
  3.906250E-01  7.031250E+00  0.000000E+00
  3.906250E-01  7.421875E+00  0.000000E+00
  3.906250E-01  7.812500E+00  0.000000E+00
  3.906250E-01  8.203125E+00  0.000000E+00
  3.906250E-01  8.593750E+00  0.000000E+00
  3.906250E-01  8.984375E+00  0.000000E+00
  3.906250E-01  9.375000E+00  0.000000E+00
  3.906250E-01  9.765625E+00  0.000000E+00
  3.906250E-01  1.015625E+01  0.000000E+00
  3.906250E-01  1.054688E+01  0.000000E+00
  3.906250E-01  1.093750E+01  0.000000E+00
  3.906250E-01  1.132812E+01  0.000000E+00
  3.906250E-01  1.171875E+01  0.000000E+00
  3.906250E-01  1.210938E+01  0.000000E+00
  3.906250E-01  1.250000E+01  0.000000E+00
  3.906250E-01  1.289062E+01  0.000000E+00
  3.906250E-01  1.328125E+01  0.000000E+00
  3.906250E-01  1.367188E+01  0.000000E+00
  3.906250E-01  1.406250E+01  0.000000E+00
  3.906250E-01  1.445312E+01  0.000000E+00
  3.906250E-01  1.484375E+01  0.000000E+00
  3.906250E-01  1.523438E+01  0.000000E+00
  3.906250E-01  1.562500E+01  0.000000E+00
  3.906250E-01  1.601562E+01  0.000000E+00
  3.906250E-01  1.640625E+01  0.000000E+00
  3.906250E-01  1.679688E+01  0.000000E+00
  3.906250E-01  1.718750E+01  0.000000E+00
  3.906250E-01  1.757812E+01  0.000000E+00
  3.906250E-01  1.796875E+01  0.000000E+00
  3.906250E-01  1.835938E+01  0.000000E+00
  3.906250E-01  1.875000E+01  0.000000E+00
  3.906250E-01  1.914062E+01  0.000000E+00
  3.906250E-01  1.953125E+01  0.000000E+00
  3.906250E-01  1.992188E+01  0.000000E+00
  3.906250E-01  2.031250E+01  0.000000E+00
  3.906250E-01  2.070312E+01  0.000000E+00
  3.906250E-01  2.109375E+01  0.000000E+00
  3.906250E-01  2.148438E+01  0.000000E+00
  3.906250E-01  2.187500E+01  0.000000E+00
  3.906250E-01  2.226562E+01  0.000000E+00
  3.906250E-01  2.265625E+01  0.000000E+00
  3.906250E-01  2.304688E+01  0.000000E+00
  3.906250E-01  2.343750E+01  0.000000E+00
  3.906250E-01  2.382812E+01  0.000000E+00
  3.906250E-01  2.421875E+01  0.000000E+00
  3.906250E-01  2.460938E+01  0.000000E+00
  7.812500E-01  0.000000E+00  0.000000E+00
  7.812500E-01  3.906250E-01  0.000000E+00
  7.812500E-01  7.812500E-01  0.000000E+00
  7.812500E-01  1.171875E+00  0.000000E+00
  7.812500E-01  1.562500E+00  0.000000E+00
  7.812500E-01  1.953125E+00  0.000000E+00
  7.812500E-01  2.343750E+00  0.000000E+00
  7.812500E-01  2.734375E+00  0.000000E+00
  7.812500E-01  3.125000E+00  0.000000E+00
  7.812500E-01  3.515625E+00  0.000000E+00
  7.812500E-01  3.906250E+00  0.000000E+00
  7.812500E-01  4.296875E+00  0.000000E+00
  7.812500E-01  4.687500E+00  0.000000E+00
  7.812500E-01  5.078125E+00  0.000000E+00
  7.812500E-01  5.468750E+00  0.000000E+00
  7.812500E-01  5.859375E+00  0.000000E+00
  7.812500E-01  6.250000E+00  0.000000E+00
  7.812500E-01  6.640625E+00  0.000000E+00
  7.812500E-01  7.031250E+00  0.000000E+00
  7.812500E-01  7.421875E+00  0.000000E+00
  7.812500E-01  7.812500E+00  0.000000E+00
  7.812500E-01  8.203125E+00  0.000000E+00
  7.812500E-01  8.593750E+00  0.000000E+00
  7.812500E-01  8.984375E+00  0.000000E+00
  7.812500E-01  9.375000E+00  0.000000E+00
  7.812500E-01  9.765625E+00  0.000000E+00
  7.812500E-01  1.015625E+01  0.000000E+00
  7.812500E-01  1.054688E+01  0.000000E+00
  7.812500E-01  1.093750E+01  0.000000E+00
  7.812500E-01  1.132812E+01  0.000000E+00
  7.812500E-01  1.171875E+01  0.000000E+00
  7.812500E-01  1.210938E+01  0.000000E+00
  7.812500E-01  1.250000E+01  0.000000E+00
  7.812500E-01  1.289062E+01  0.000000E+00
  7.812500E-01  1.328125E+01  0.000000E+00
  7.812500E-01  1.367188E+01  0.000000E+00
  7.812500E-01  1.406250E+01  0.000000E+00
  7.812500E-01  1.445312E+01  0.000000E+00
  7.812500E-01  1.484375E+01  0.000000E+00
  7.812500E-01  1.523438E+01  0.000000E+00
  7.812500E-01  1.562500E+01  0.000000E+00
  7.812500E-01  1.601562E+01  0.000000E+00
  7.812500E-01  1.640625E+01  0.000000E+00
  7.812500E-01  1.679688E+01  0.000000E+00
  7.812500E-01  1.718750E+01  0.000000E+00
  7.812500E-01  1.757812E+01  0.000000E+00
  7.812500E-01  1.796875E+01  0.000000E+00
  7.812500E-01  1.835938E+01  0.000000E+00
  7.812500E-01  1.875000E+01  0.000000E+00
  7.812500E-01  1.914062E+01  0.000000E+00
  7.812500E-01  1.953125E+01  0.000000E+00
  7.812500E-01  1.992188E+01  0.000000E+00
  7.812500E-01  2.031250E+01  0.000000E+00
  7.812500E-01  2.070312E+01  0.000000E+00
  7.812500E-01  2.109375E+01  0.000000E+00
  7.812500E-01  2.148438E+01  0.000000E+00
  7.812500E-01  2.187500E+01  0.000000E+00
  7.812500E-01  2.226562E+01  0.000000E+00
  7.812500E-01  2.265625E+01  0.000000E+00
  7.812500E-01  2.304688E+01  0.000000E+00
  7.812500E-01  2.343750E+01  0.000000E+00
  7.812500E-01  2.382812E+01  0.000000E+00
  7.812500E-01  2.421875E+01  0.000000E+00
  7.812500E-01  2.460938E+01  0.000000E+00
  1.171875E+00  0.000000E+00  0.000000E+00
  1.171875E+00  3.906250E-01  0.000000E+00
  1.171875E+00  7.812500E-01  0.000000E+00
  1.171875E+00  1.171875E+00  0.000000E+00
  1.171875E+00  1.562500E+00  0.000000E+00
  1.171875E+00  1.953125E+00  0.000000E+00
  1.171875E+00  2.343750E+00  0.000000E+00
  1.171875E+00  2.734375E+00  0.000000E+00
  1.171875E+00  3.125000E+00  0.000000E+00
  1.171875E+00  3.515625E+00  0.000000E+00
  1.171875E+00  3.906250E+00  0.000000E+00
  1.171875E+00  4.296875E+00  0.000000E+00
  1.171875E+00  4.687500E+00  0.000000E+00
  1.171875E+00  5.078125E+00  0.000000E+00
  1.171875E+00  5.468750E+00  0.000000E+00
  1.171875E+00  5.859375E+00  0.000000E+00
  1.171875E+00  6.250000E+00  0.000000E+00
  1.171875E+00  6.640625E+00  0.000000E+00
  1.171875E+00  7.031250E+00  0.000000E+00
  1.171875E+00  7.421875E+00  0.000000E+00
  1.171875E+00  7.812500E+00  0.000000E+00
  1.171875E+00  8.203125E+00  0.000000E+00
  1.171875E+00  8.593750E+00  0.000000E+00
  1.171875E+00  8.984375E+00  0.000000E+00
  1.171875E+00  9.375000E+00  0.000000E+00
  1.171875E+00  9.765625E+00  0.000000E+00
  1.171875E+00  1.015625E+01  0.000000E+00
  1.171875E+00  1.054688E+01  0.000000E+00
  1.171875E+00  1.093750E+01  0.000000E+00
  1.171875E+00  1.132812E+01  0.000000E+00
  1.171875E+00  1.171875E+01  0.000000E+00
  1.171875E+00  1.210938E+01  0.000000E+00
  1.171875E+00  1.250000E+01  0.000000E+00
  1.171875E+00  1.289062E+01  0.000000E+00
  1.171875E+00  1.328125E+01  0.000000E+00
  1.171875E+00  1.367188E+01  0.000000E+00
  1.171875E+00  1.406250E+01  0.000000E+00
  1.171875E+00  1.445312E+01  0.000000E+00
[...]
POINT_DATA   4096
SCALARS CON  float  1
LOOKUP_TABLE default
  4.714084E-01
  4.718463E-01
  4.781249E-01
  4.746731E-01
  4.750876E-01
  4.681560E-01
  4.702040E-01
  4.685142E-01
  4.747765E-01
  4.727470E-01
  4.746614E-01
  4.678748E-01
  4.680657E-01
  4.634625E-01
  4.680261E-01
  4.675795E-01
  4.741473E-01
  4.726051E-01
  4.755786E-01
  4.697628E-01
  4.699860E-01
  4.639450E-01
  4.654426E-01
  4.605375E-01
  4.624239E-01
  4.583748E-01
  4.630740E-01
  4.635491E-01
  4.718694E-01
  4.718844E-01
  4.753127E-01
  4.692792E-01
  4.700652E-01
  4.664291E-01
  4.717533E-01
  4.702719E-01
  4.733153E-01
  4.671633E-01
  4.670527E-01
  4.613138E-01
  4.638989E-01
  4.605159E-01
  4.635237E-01
  4.591179E-01
  4.614600E-01
  4.585885E-01
  4.652325E-01
  4.679404E-01
  4.779903E-01
  4.781038E-01
  4.792466E-01
  4.687435E-01
  4.646040E-01
  4.582952E-01
  4.655180E-01
  4.711623E-01
  4.839067E-01
  4.852572E-01
  4.872232E-01
  4.781703E-01
  4.751935E-01
  4.671365E-01
  4.683523E-01
  4.653819E-01
  4.716694E-01
  4.738025E-01
  4.817035E-01
  4.805981E-01
  4.800837E-01
  4.708560E-01
  4.683196E-01
  4.640657E-01
  4.689793E-01
  4.694301E-01
  4.743354E-01
  4.716077E-01
  4.729324E-01
  4.679254E-01
  4.688174E-01
  4.655015E-01
  4.698004E-01
  4.697761E-01
  4.746708E-01
  4.714244E-01
  4.713193E-01
  4.649516E-01
  4.655693E-01
  4.625838E-01
  4.662373E-01
  4.641481E-01
  4.672717E-01
  4.651718E-01
  4.696831E-01
  4.691974E-01
  4.737306E-01
  4.710668E-01
  4.725283E-01
  4.676914E-01
  4.686015E-01
  4.644799E-01
  4.667122E-01
  4.640752E-01
  4.673719E-01
  4.645335E-01
  4.659739E-01
  4.605494E-01
  4.603951E-01
  4.555069E-01
  4.577595E-01
  4.565163E-01
  4.633606E-01
  4.670125E-01
  4.767355E-01
  4.777052E-01
  4.785986E-01
  4.693061E-01
  4.660178E-01
  4.626045E-01
  4.716864E-01
  4.787741E-01
  4.891416E-01
  4.871505E-01
  4.846852E-01
  4.745018E-01
  4.717436E-01
  4.662073E-01
  4.682333E-01
  4.661245E-01
  4.639496E-01
  4.728024E-01
  4.820957E-01
  4.836284E-01
  4.803175E-01
  4.715667E-01
  4.662379E-01
  4.634207E-01
  4.666242E-01
  4.695160E-01
  4.734662E-01
  4.733520E-01
  4.732256E-01
  4.701681E-01
  4.692576E-01
  4.675728E-01
  4.692670E-01
  4.698622E-01
  4.720882E-01
  4.711436E-01
  4.709039E-01
  4.682267E-01
  4.677263E-01
  4.657197E-01
  4.658705E-01
  4.642261E-01
  4.649043E-01
  4.642833E-01
  4.659503E-01
  4.652550E-01
  4.655457E-01
  4.633889E-01
  4.638889E-01
  4.640661E-01
  4.673539E-01
  4.683220E-01
  4.695105E-01
  4.670432E-01
  4.658539E-01
  4.629122E-01
  4.620171E-01
  4.588400E-01
  4.572931E-01
  4.543884E-01
  4.551582E-01
  4.566252E-01
  4.627011E-01
  4.685442E-01
  4.757996E-01
  4.777835E-01
  4.768285E-01
  4.703106E-01
  4.659561E-01
  4.638852E-01
  4.695554E-01
  4.771200E-01
  4.857761E-01
  4.871076E-01
  4.837085E-01
  4.738716E-01
  4.652253E-01
  4.569734E-01
  4.548493E-01
  4.559534E-01
  4.635414E-01
  4.734671E-01
  4.800321E-01
  4.841665E-01
  4.779750E-01
  4.699853E-01
  4.599756E-01
  4.577700E-01
  4.584367E-01
  4.654940E-01
  4.701846E-01
  4.756576E-01
  4.749240E-01
  4.739173E-01
  4.685202E-01
  4.668745E-01
  4.652104E-01
  4.692482E-01
  4.713040E-01
  4.745641E-01
  4.722834E-01
  4.713131E-01
  4.679394E-01
  4.689066E-01
  4.678854E-01
  4.691328E-01
  4.661806E-01
  4.653535E-01
  4.624480E-01
  4.641594E-01
  4.644953E-01
  4.676914E-01
  4.666199E-01
  4.666101E-01
  4.629125E-01
  4.627992E-01
  4.617774E-01
  4.654339E-01
  4.665939E-01
  4.688922E-01
  4.655438E-01
  4.631672E-01
  4.584094E-01
  4.588689E-01
  4.591418E-01
  4.637656E-01
  4.658960E-01
  4.707028E-01
  4.719527E-01
  4.741844E-01
  4.706988E-01
  4.680909E-01
  4.636642E-01
  4.661624E-01
  4.704430E-01
  4.792621E-01
  4.822858E-01
  4.823642E-01
  4.746518E-01
  4.683560E-01
  4.607919E-01
  4.586573E-01
  4.562149E-01
  4.594601E-01
  4.597962E-01
  4.723033E-01
  4.761837E-01
  4.810827E-01
  4.723276E-01
  4.671242E-01
  4.566165E-01
  4.575726E-01
  4.565616E-01
  4.651711E-01
  4.670947E-01
  4.739013E-01
  4.709467E-01
  4.726062E-01
  4.667049E-01
  4.686863E-01
  4.657097E-01
  4.711584E-01
  4.701327E-01
  4.751244E-01
  4.716829E-01
  4.737356E-01
  4.680650E-01
  4.690279E-01
  4.633357E-01
  4.649630E-01
  4.603650E-01
  4.632831E-01
  4.600302E-01
  4.640829E-01
  4.614465E-01
  4.654790E-01
  4.624018E-01
  4.661743E-01
  4.633863E-01
  4.677393E-01
  4.652458E-01
  4.692734E-01
  4.657938E-01
  4.682173E-01
  4.627849E-01
  4.639564E-01
  4.594114E-01
  4.638876E-01
  4.635700E-01
  4.706779E-01
  4.697887E-01
  4.739515E-01
  4.696937E-01
  4.712982E-01
  4.652737E-01
  4.657991E-01
  4.602895E-01
  4.638096E-01
  4.633463E-01
  4.716016E-01
  4.724942E-01
  4.774390E-01
  4.716762E-01
  4.698056E-01
  4.598814E-01
  4.576737E-01
  4.515628E-01
  4.567126E-01
  4.648205E-01
  4.728287E-01
  4.728448E-01
  4.774977E-01
  4.689668E-01
  4.651582E-01
  4.540868E-01
  4.549211E-01
  4.527505E-01
  4.619618E-01
  4.641181E-01
  4.725808E-01
  4.697869E-01
  4.719143E-01
  4.647394E-01
  4.668188E-01
  4.639857E-01
  4.719287E-01
  4.724238E-01
  4.788110E-01
  4.737424E-01
  4.742049E-01
  4.661859E-01
  4.673026E-01
  4.618430E-01
  4.649817E-01
  4.601023E-01
  4.633561E-01
  4.599520E-01
  4.666503E-01
  4.668934E-01
  4.744089E-01
  4.708283E-01
  4.717421E-01
  4.631723E-01
  4.642347E-01
  4.609404E-01
  4.685695E-01
  4.683892E-01
  4.735449E-01
  4.673604E-01
  4.680535E-01
  4.629416E-01
  4.695677E-01
  4.704879E-01
  4.782472E-01
  4.742629E-01
  4.749678E-01
  4.665551E-01
  4.669001E-01
  4.603857E-01
  4.627095E-01
  4.582981E-01
  4.637240E-01
  4.629148E-01
  4.701811E-01
  4.675923E-01
  4.705853E-01
  4.644477E-01
  4.669710E-01
  4.627552E-01
  4.669370E-01
  4.628152E-01
  4.669195E-01
  4.637488E-01
  4.701163E-01
  4.698324E-01
  4.732319E-01
  4.670722E-01
  4.654783E-01
  4.583906E-01
  4.600488E-01
  4.582925E-01
  4.645539E-01
  4.647065E-01
  4.697284E-01
  4.664514E-01
  4.681909E-01
  4.640448E-01
  4.679715E-01
  4.676972E-01
  4.746973E-01
  4.747243E-01
  4.790002E-01
  4.743517E-01
  4.737976E-01
  4.657025E-01
  4.639232E-01
  4.572179E-01
  4.588649E-01
  4.564545E-01
  4.618537E-01
  4.618637E-01
  4.683343E-01
  4.681132E-01
  4.730315E-01
  4.700880E-01
  4.723306E-01
  4.683258E-01
  4.715646E-01
  4.694173E-01
  4.734451E-01
  4.699484E-01
  4.711068E-01
  4.651516E-01
  4.664047E-01
  4.640012E-01
  4.707347E-01
  4.723942E-01
  4.786956E-01
  4.750026E-01
  4.743765E-01
  4.664719E-01
  4.659797E-01
  4.609534E-01
  4.632222E-01
  4.595657E-01
  4.623880E-01
  4.595622E-01
  4.637316E-01
  4.621548E-01
  4.669400E-01
  4.651973E-01
  4.690940E-01
  4.657054E-01
  4.675215E-01
  4.627474E-01
  4.653108E-01
  4.670308E-01
  4.677714E-01
  4.676466E-01
  4.706168E-01
  4.690306E-01
  4.681463E-01
  4.636258E-01
  4.630483E-01
  4.619248E-01
  4.656696E-01
  4.672613E-01
  4.706149E-01
  4.689500E-01
  4.683165E-01
  4.648314E-01
  4.663427E-01
  4.682445E-01
  4.751156E-01
  4.784414E-01
  4.811469E-01
  4.766206E-01
  4.720942E-01
  4.645673E-01
  4.619280E-01
  4.592300E-01
  4.613920E-01
  4.615610E-01
  4.647182E-01
  4.655988E-01
  4.705530E-01
  4.735805E-01
  4.785178E-01
  4.775459E-01
  4.760512E-01
  4.704375E-01
  4.693979E-01
  4.687298E-01
  4.729119E-01
  4.734289E-01
  4.739008E-01
  4.690840E-01
  4.673451E-01
  4.657360E-01
  4.703794E-01
  4.732712E-01
  4.767589E-01
  4.735886E-01
  4.709067E-01
  4.657586E-01
  4.653650E-01
  4.636364E-01
  4.651295E-01
  4.638916E-01
  4.659867E-01
  4.656833E-01
  4.675925E-01
  4.651259E-01
  4.645582E-01
  4.622226E-01
  4.653085E-01
  4.675643E-01
  4.722143E-01
  4.713959E-01
  4.708480E-01
  4.617820E-01
  4.627620E-01
  4.652054E-01
  4.681970E-01
  4.704153E-01
  4.714841E-01
  4.714124E-01
  4.710671E-01
  4.709600E-01
  4.714438E-01
  4.717865E-01
  4.712760E-01
  4.694030E-01
  4.672241E-01
  4.662166E-01
  4.677675E-01
  4.714635E-01
  4.758440E-01
  4.786268E-01
  4.785876E-01
  4.754312E-01
  4.703914E-01
  4.649072E-01
  4.608411E-01
  4.592699E-01
  4.606420E-01
  4.638186E-01
  4.673071E-01
  4.696466E-01
  4.707928E-01
  4.711055E-01
  4.713350E-01
  4.716132E-01
  4.724311E-01
  4.738608E-01
  4.757748E-01
  4.768683E-01
  4.760540E-01
  4.728263E-01
  4.684676E-01
  4.647093E-01
  4.632937E-01
  4.643594E-01
  4.670532E-01
  4.694382E-01
  4.702988E-01
  4.693681E-01
  4.680602E-01
  4.675689E-01
  4.683661E-01
  4.693516E-01
  4.696164E-01
  4.688021E-01
  4.678110E-01
  4.671847E-01
  4.671422E-01
  4.670954E-01
  4.670383E-01
  4.670056E-01
  4.673006E-01
  4.673336E-01
  4.665954E-01
  4.647352E-01
  4.627570E-01
  4.621122E-01
  4.606844E-01
  4.633922E-01
  4.674802E-01
  4.721099E-01
  4.737665E-01
  4.738469E-01
  4.720912E-01
  4.717627E-01
  4.720025E-01
  4.737428E-01
  4.738547E-01
  4.727779E-01
  4.692216E-01
  4.666197E-01
  4.656024E-01
  4.687597E-01
  4.732823E-01
  4.778266E-01
  4.780136E-01
  4.747915E-01
  4.684748E-01
  4.638050E-01
  4.616144E-01
  4.639603E-01
  4.677232E-01
  4.719936E-01
  4.733237E-01
  4.733127E-01
  4.718955E-01
  4.720821E-01
  4.722508E-01
  4.729028E-01
  4.717705E-01
  4.710817E-01
  4.704276E-01
  4.716896E-01
  4.721317E-01
  4.718253E-01
  4.687965E-01
  4.659206E-01
  4.635499E-01
  4.643015E-01
  4.658293E-01
  4.678411E-01
  4.674571E-01
  4.668231E-01
  4.661395E-01
  4.681005E-01
  4.702726E-01
  4.723141E-01
  4.717083E-01
  4.711608E-01
  4.708936E-01
  4.728667E-01
  4.738194E-01
  4.734023E-01
  4.699973E-01
  4.673269E-01
  4.659870E-01
  4.676678E-01
  4.686975E-01
  4.684280E-01
  4.650222E-01
  4.571697E-01
  4.586973E-01
  4.618895E-01
  4.667317E-01
  4.708962E-01
  4.740595E-01
  4.747493E-01
  4.744792E-01
  4.734666E-01
  4.734741E-01
  4.732925E-01
  4.728422E-01
  4.704976E-01
  4.678416E-01
  4.655630E-01
  4.659897E-01
  4.682186E-01
  4.718650E-01
  4.740909E-01
  4.744514E-01
  4.717553E-01
  4.679452E-01
  4.638144E-01
  4.621590E-01
  4.632062E-01
  4.676087E-01
  4.724206E-01
  4.758507E-01
  4.752278E-01
  4.719793E-01
  4.672884E-01
  4.644119E-01
  4.637038E-01
  4.661339E-01
  4.696630E-01
  4.733241E-01
  4.741383E-01
  4.721183E-01
  4.672621E-01
  4.628775E-01
  4.601993E-01
  4.607840E-01
  4.625572E-01
  4.646579E-01
  4.650695E-01
  4.651309E-01
  4.652504E-01
  4.674211E-01
  4.703600E-01
  4.733634E-01
  4.737640E-01
  4.722600E-01
  4.694134E-01
  4.682548E-01
  4.688606E-01
  4.715159E-01
  4.736335E-01
  4.748484E-01
  4.738663E-01
  4.719924E-01
  4.686834E-01
  4.652224E-01
  4.611982E-01
  4.584935E-01
  4.602210E-01
  4.605859E-01
  4.618032E-01
  4.672717E-01
  4.701331E-01
  4.729627E-01
  4.708656E-01
  4.698230E-01
  4.672580E-01
  4.687961E-01
  4.693239E-01
  4.716731E-01
  4.697607E-01
  4.680932E-01
  4.637303E-01
  4.634511E-01
  4.640311E-01
  4.693392E-01
  4.724075E-01
  4.751244E-01
  4.718350E-01
  4.684288E-01
  4.631883E-01
  4.632274E-01
  4.648209E-01
  4.711162E-01
  4.747896E-01
  4.779199E-01
  4.753401E-01
  4.731389E-01
  4.688614E-01
  4.681356E-01
  4.661144E-01
  4.666541E-01
  4.650766E-01
  4.662448E-01
  4.656212E-01
  4.671112E-01
  4.654426E-01
  4.651903E-01
  4.627217E-01
  4.636149E-01
  4.635743E-01
  4.663087E-01
  4.661653E-01
  4.674416E-01
  4.665068E-01
  4.689645E-01
  4.700510E-01
  4.726407E-01
  4.705579E-01
  4.687148E-01
  4.649581E-01
  4.662852E-01
  4.684840E-01
  4.739687E-01
  4.754351E-01
  4.763787E-01
  4.733609E-01
  4.727639E-01
  4.706206E-01
  4.705887E-01
  4.669858E-01
  4.645031E-01
  4.586384E-01
  4.616119E-01
  4.624821E-01
  4.671210E-01
  4.681944E-01
  4.713350E-01
  4.695023E-01
  4.697108E-01
  4.665710E-01
  4.675499E-01
  4.660291E-01
  4.676307E-01
  4.650934E-01
  4.652614E-01
  4.627233E-01
  4.649431E-01
  4.654530E-01
  4.700147E-01
  4.710105E-01
  4.739799E-01
  4.716459E-01
  4.705304E-01
  4.650063E-01
  4.634347E-01
  4.611799E-01
  4.654419E-01
  4.684353E-01
  4.739908E-01
  4.731513E-01
  4.720750E-01
  4.659249E-01
  4.637981E-01
  4.609401E-01
  4.640751E-01
  4.654603E-01
  4.696621E-01
  4.685057E-01
  4.682176E-01
  4.634558E-01
  4.626315E-01
  4.604812E-01
  4.634006E-01
  4.637080E-01
  4.667515E-01
  4.657201E-01
  4.677871E-01
  4.671757E-01
  4.704314E-01
  4.700520E-01
  4.713541E-01
  4.673379E-01
  4.654816E-01
  4.610696E-01
  4.622056E-01
  4.628612E-01
  4.687531E-01
  4.717620E-01
  4.767899E-01
  4.761114E-01
  4.759809E-01
  4.703955E-01
  4.672231E-01
  4.614309E-01
  4.606353E-01
  4.648060E-01
  4.652371E-01
  4.646039E-01
  4.676133E-01
  4.681859E-01
  4.698773E-01
  4.673051E-01
  4.662177E-01
  4.631752E-01
  4.640429E-01
  4.637210E-01
  4.660175E-01
  4.650044E-01
  4.654455E-01
  4.632945E-01
  4.646879E-01
  4.655095E-01
  4.703700E-01
  4.729963E-01
  4.764945E-01
  4.746500E-01
  4.724942E-01
  4.666329E-01
  4.641620E-01
  4.617793E-01
  4.645182E-01
  4.662124E-01
  4.699325E-01
  4.696162E-01
  4.703681E-01
  4.682541E-01
  4.688601E-01
  4.670909E-01
  4.673158E-01
  4.646065E-01
  4.645737E-01
  4.631244E-01
  4.652708E-01
  4.653994E-01
  4.675120E-01
  4.663971E-01
  4.674243E-01
  4.663797E-01
  4.683642E-01
  4.680283E-01
  4.697180E-01
  4.683702E-01
  4.690876E-01
  4.669682E-01
  4.666217E-01
  4.631119E-01
  4.622217E-01
  4.605312E-01
  4.637862E-01
  4.664111E-01
  4.713494E-01
  4.718862E-01
  4.725912E-01
  4.696475E-01
  4.694298E-01
  4.676635E-01
  4.688687E-01
  4.673044E-01
  4.674500E-01
  4.662148E-01
  4.677417E-01
  4.671796E-01
  4.672329E-01
  4.671474E-01
  4.684784E-01
  4.686941E-01
  4.688232E-01
  4.673051E-01
  4.663263E-01
  4.645750E-01
  4.638464E-01
  4.627805E-01
  4.636258E-01
  4.650664E-01
  4.683125E-01
  4.706714E-01
  4.730992E-01
  4.740234E-01
  4.754399E-01
  4.752690E-01
  4.740629E-01
  4.694777E-01
  4.641713E-01
  4.589042E-01
  4.575823E-01
  4.589729E-01
  4.629862E-01
  4.653239E-01
  4.661021E-01
  4.642340E-01
  4.633567E-01
  4.634117E-01
  4.661049E-01
  4.683969E-01
  4.702959E-01
  4.693967E-01
  4.679675E-01
  4.656717E-01
  4.652200E-01
  4.651132E-01
  4.664745E-01
  4.669964E-01
  4.680562E-01
  4.680204E-01
  4.685724E-01
  4.678356E-01
  4.672224E-01
  4.651187E-01
  4.637363E-01
  4.622171E-01
  4.627789E-01
  4.636501E-01
  4.657925E-01
  4.668009E-01
  4.680319E-01
  4.678996E-01
  4.680775E-01
  4.666039E-01
  4.650248E-01
  4.623185E-01
  4.614448E-01
  4.616750E-01
  4.643090E-01
  4.750316E-01
  4.730990E-01
  4.703906E-01
  4.677685E-01
  4.671748E-01
  4.670418E-01
  4.675370E-01
  4.670545E-01
  4.667741E-01
  4.658513E-01
  4.654794E-01
  4.646027E-01
  4.645802E-01
  4.647626E-01
  4.665093E-01
  4.685139E-01
  4.713151E-01
  4.732982E-01
  4.753089E-01
  4.760188E-01
  4.760372E-01
  4.736647E-01
  4.699685E-01
  4.648384E-01
  4.610211E-01
  4.587067E-01
  4.591319E-01
  4.602944E-01
  4.621814E-01
  4.633034E-01
  4.651427E-01
  4.669407E-01
  4.692909E-01
  4.699633E-01
  4.693973E-01
  4.671466E-01
  4.658818E-01
  4.656297E-01
  4.672238E-01
  4.683004E-01
  4.689904E-01
  4.684150E-01
  4.686697E-01
  4.691852E-01
  4.703857E-01
  4.698519E-01
  4.680168E-01
  4.644568E-01
  4.617809E-01
  4.602143E-01
  4.613942E-01
  4.640034E-01
  4.682612E-01
  4.716121E-01
  4.734885E-01
  4.717025E-01
  4.676230E-01
  4.618094E-01
  4.576283E-01
  4.558234E-01
  4.581700E-01
  4.628765E-01
  4.691145E-01
  4.733630E-01
  4.770239E-01
  4.760991E-01
  4.725185E-01
  4.674917E-01
  4.654584E-01
  4.653303E-01
  4.676916E-01
  4.690368E-01
  4.699610E-01
  4.683989E-01
  4.665212E-01
  4.635330E-01
  4.625833E-01
  4.630839E-01
  4.667830E-01
  4.703344E-01
  4.733424E-01
  4.730872E-01
  4.724090E-01
  4.713771E-01
  4.723315E-01
  4.720690E-01
  4.703667E-01
  4.650914E-01
  4.600014E-01
  4.561263E-01
  4.565490E-01
  4.584452E-01
  4.611806E-01
  4.614564E-01
  4.616398E-01
  4.619381E-01
  4.653740E-01
  4.693954E-01
  4.734691E-01
  4.738353E-01
  4.720940E-01
  4.680314E-01
  4.653910E-01
  4.635403E-01
  4.642520E-01
  4.651730E-01
  4.674296E-01
  4.686739E-01
  4.699836E-01
  4.688747E-01
  4.669042E-01
  4.630578E-01
  4.606920E-01
  4.596930E-01
  4.625215E-01
  4.665727E-01
  4.714179E-01
  4.729474E-01
  4.719419E-01
  4.675439E-01
  4.634698E-01
  4.594177E-01
  4.575147E-01
  4.559862E-01
  4.571061E-01
  4.600270E-01
  4.664448E-01
  4.725701E-01
  4.825908E-01
  4.784745E-01
  4.734377E-01
  4.674954E-01
  4.651420E-01
  4.635811E-01
  4.646831E-01
  4.647041E-01
  4.658733E-01
  4.651072E-01
  4.651801E-01
  4.636164E-01
  4.639002E-01
  4.638514E-01
  4.662430E-01
  4.674549E-01
  4.692723E-01
  4.685262E-01
  4.686634E-01
  4.678317E-01
  4.691202E-01
  4.689685E-01
  4.690944E-01
  4.663764E-01
  4.645289E-01
  4.620614E-01
  4.623541E-01
  4.621366E-01
  4.634438E-01
  4.634504E-01
  4.657408E-01
  4.680092E-01
  4.722064E-01
  4.735875E-01
  4.735590E-01
  4.697834E-01
  4.671348E-01
  4.645887E-01
  4.651359E-01
  4.649202E-01
  4.659291E-01
  4.656876E-01
  4.678086E-01
  4.693608E-01
  4.715889E-01
  4.698432E-01
  4.666626E-01
  4.610373E-01
  4.584042E-01
  4.576953E-01
  4.616802E-01
  4.661271E-01
  4.717421E-01
  4.737770E-01
  4.739849E-01
  4.697189E-01
  4.651317E-01
  4.593491E-01
  4.570171E-01
  4.566089E-01
  4.612945E-01
  4.675005E-01
  4.759062E-01
  4.807545E-01
  4.775809E-01
  4.748760E-01
  4.722757E-01
  4.660013E-01
  4.643740E-01
  4.621276E-01
  4.644723E-01
  4.640423E-01
  4.658959E-01
  4.637499E-01
  4.639229E-01
  4.611360E-01
  4.623785E-01
  4.622954E-01
  4.664396E-01
  4.670791E-01
  4.684621E-01
  4.644019E-01
  4.629164E-01
  4.605583E-01
  4.642033E-01
  4.661720E-01
  4.696707E-01
  4.672234E-01
  4.660748E-01
  4.627240E-01
  4.646377E-01
  4.649676E-01
  4.677226E-01
  4.658354E-01
  4.663887E-01
  4.653693E-01
  4.696729E-01
  4.719588E-01
  4.758279E-01
  4.735523E-01
  4.715032E-01
  4.654069E-01
  4.632080E-01
  4.599894E-01
  4.619298E-01
  4.625953E-01
  4.671522E-01
  4.683420E-01
  4.708418E-01
  4.677730E-01
  4.656020E-01
  4.599239E-01
  4.587892E-01
  4.575800E-01
  4.622222E-01
  4.651665E-01
  4.701181E-01
  4.693991E-01
  4.692473E-01
  4.654235E-01
  4.658715E-01
  4.650001E-01
  4.677097E-01
  4.667212E-01
  4.682118E-01
  4.675551E-01
  4.717772E-01
  4.739035E-01
  4.755920E-01
  4.706180E-01
  4.707211E-01
  4.653714E-01
  4.662289E-01
  4.618471E-01
  4.632704E-01
  4.592765E-01
  4.613953E-01
  4.586152E-01
  4.622154E-01
  4.608156E-01
  4.654058E-01
  4.642605E-01
  4.679669E-01
  4.645589E-01
  4.652754E-01
  4.596963E-01
  4.606063E-01
  4.580126E-01
  4.632567E-01
  4.639603E-01
  4.697567E-01
  4.684130E-01
  4.716146E-01
  4.689799E-01
  4.722373E-01
  4.696476E-01
  4.721552E-01
  4.689461E-01
  4.724458E-01
  4.716245E-01
  4.764777E-01
  4.735721E-01
  4.733948E-01
  4.659363E-01
  4.650278E-01
  4.608956E-01
  4.643745E-01
  4.627803E-01
  4.666059E-01
  4.650383E-01
  4.699979E-01
  4.695994E-01
  4.733528E-01
  4.684207E-01
  4.666204E-01
  4.589319E-01
  4.590244E-01
  4.566092E-01
  4.621195E-01
  4.627497E-01
  4.684685E-01
  4.674997E-01
  4.713876E-01
  4.693210E-01
  4.729871E-01
  4.710693E-01
  4.746526E-01
  4.721925E-01
  4.752531E-01
  4.728390E-01
  4.762911E-01
  4.736617E-01
  4.666415E-01
  4.651823E-01
  4.693175E-01
  4.653742E-01
  4.676264E-01
  4.632638E-01
  4.658300E-01
  4.615919E-01
  4.639231E-01
  4.596680E-01
  4.627227E-01
  4.600512E-01
  4.652043E-01
  4.643450E-01
  4.698475E-01
  4.667149E-01
  4.676448E-01
  4.600667E-01
  4.599354E-01
  4.562258E-01
  4.627360E-01
  4.640771E-01
  4.708600E-01
  4.682195E-01
  4.707602E-01
  4.670951E-01
  4.716818E-01
  4.699681E-01
  4.737635E-01
  4.690554E-01
  4.706681E-01
  4.667629E-01
  4.712058E-01
  4.692512E-01
  4.728548E-01
  4.678778E-01
  4.684739E-01
  4.623386E-01
  4.639414E-01
  4.604220E-01
  4.653865E-01
  4.650580E-01
  4.719007E-01
  4.708841E-01
  4.742675E-01
  4.683310E-01
  4.678107E-01
  4.609995E-01
  4.627120E-01