# vtk DataFile Version 2.0
title
ASCII
DATASET STRUCTURED_GRID
DIMENSIONS   64   64    1
POINTS   4096  float
  0.000000E+00  0.000000E+00  0.000000E+00
  0.000000E+00  3.906250E-01  0.000000E+00
  0.000000E+00  7.812500E-01  0.000000E+00
  0.000000E+00  1.171875E+00  0.000000E+00
  0.000000E+00  1.562500E+00  0.000000E+00
  0.000000E+00  1.953125E+00  0.000000E+00
  0.000000E+00  2.343750E+00  0.000000E+00
  0.000000E+00  2.734375E+00  0.000000E+00
  0.000000E+00  3.125000E+00  0.000000E+00
  0.000000E+00  3.515625E+00  0.000000E+00
  0.000000E+00  3.906250E+00  0.000000E+00
  0.000000E+00  4.296875E+00  0.000000E+00
  0.000000E+00  4.687500E+00  0.000000E+00
  0.000000E+00  5.078125E+00  0.000000E+00
  0.000000E+00  5.468750E+00  0.000000E+00
  0.000000E+00  5.859375E+00  0.000000E+00
  0.000000E+00  6.250000E+00  0.000000E+00
  0.000000E+00  6.640625E+00  0.000000E+00
  0.000000E+00  7.031250E+00  0.000000E+00
  0.000000E+00  7.421875E+00  0.000000E+00
  0.000000E+00  7.812500E+00  0.000000E+00
  0.000000E+00  8.203125E+00  0.000000E+00
  0.000000E+00  8.593750E+00  0.000000E+00
  0.000000E+00  8.984375E+00  0.000000E+00
  0.000000E+00  9.375000E+00  0.000000E+00
  0.000000E+00  9.765625E+00  0.000000E+00
  0.000000E+00  1.015625E+01  0.000000E+00
  0.000000E+00  1.054688E+01  0.000000E+00
  0.000000E+00  1.093750E+01  0.000000E+00
  0.000000E+00  1.132812E+01  0.000000E+00
  0.000000E+00  1.171875E+01  0.000000E+00
  0.000000E+00  1.210938E+01  0.000000E+00
  0.000000E+00  1.250000E+01  0.000000E+00
  0.000000E+00  1.289062E+01  0.000000E+00
  0.000000E+00  1.328125E+01  0.000000E+00
  0.000000E+00  1.367188E+01  0.000000E+00
  0.000000E+00  1.406250E+01  0.000000E+00
  0.000000E+00  1.445312E+01  0.000000E+00
  0.000000E+00  1.484375E+01  0.000000E+00
  0.000000E+00  1.523438E+01  0.000000E+00
  0.000000E+00  1.562500E+01  0.000000E+00
  0.000000E+00  1.601562E+01  0.000000E+00
  0.000000E+00  1.640625E+01  0.000000E+00
  0.000000E+00  1.679688E+01  0.000000E+00
  0.000000E+00  1.718750E+01  0.000000E+00
  0.000000E+00  1.757812E+01  0.000000E+00
  0.000000E+00  1.796875E+01  0.000000E+00
  0.000000E+00  1.835938E+01  0.000000E+00
  0.000000E+00  1.875000E+01  0.000000E+00
  0.000000E+00  1.914062E+01  0.000000E+00
  0.000000E+00  1.953125E+01  0.000000E+00
  0.000000E+00  1.992188E+01  0.000000E+00
  0.000000E+00  2.031250E+01  0.000000E+00
  0.000000E+00  2.070312E+01  0.000000E+00
  0.000000E+00  2.109375E+01  0.000000E+00
  0.000000E+00  2.148438E+01  0.000000E+00
  0.000000E+00  2.187500E+01  0.000000E+00
  0.000000E+00  2.226562E+01  0.000000E+00
  0.000000E+00  2.265625E+01  0.000000E+00
  0.000000E+00  2.304688E+01  0.000000E+00
  0.000000E+00  2.343750E+01  0.000000E+00
  0.000000E+00  2.382812E+01  0.000000E+00
  0.000000E+00  2.421875E+01  0.000000E+00
  0.000000E+00  2.460938E+01  0.000000E+00
  3.906250E-01  0.000000E+00  0.000000E+00
  3.906250E-01  3.906250E-01  0.000000E+00
  3.906250E-01  7.812500E-01  0.000000E+00
  3.906250E-01  1.171875E+00  0.000000E+00
  3.906250E-01  1.562500E+00  0.000000E+00
  3.906250E-01  1.953125E+00  0.000000E+00
  3.906250E-01  2.343750E+00  0.000000E+00
  3.906250E-01  2.734375E+00  0.000000E+00
  3.906250E-01  3.125000E+00  0.000000E+00
  3.906250E-01  3.515625E+00  0.000000E+00
  3.906250E-01  3.906250E+00  0.000000E+00
  3.906250E-01  4.296875E+00  0.000000E+00
  3.906250E-01  4.687500E+00  0.000000E+00
  3.906250E-01  5.078125E+00  0.000000E+00
  3.906250E-01  5.468750E+00  0.000000E+00
  3.906250E-01  5.859375E+00  0.000000E+00
  3.906250E-01  6.250000E+00  0.000000E+00
  3.906250E-01  6.640625E+00  0.000000E+00
  3.906250E-01  7.031250E+00  0.000000E+00
  3.906250E-01  7.421875E+00  0.000000E+00
  3.906250E-01  7.812500E+00  0.000000E+00
  3.906250E-01  8.203125E+00  0.000000E+00
  3.906250E-01  8.593750E+00  0.000000E+00
  3.906250E-01  8.984375E+00  0.000000E+00
  3.906250E-01  9.375000E+00  0.000000E+00
  3.906250E-01  9.765625E+00  0.000000E+00
  3.906250E-01  1.015625E+01  0.000000E+00
  3.906250E-01  1.054688E+01  0.000000E+00
  3.906250E-01  1.093750E+01  0.000000E+00
  3.906250E-01  1.132812E+01  0.000000E+00
  3.906250E-01  1.171875E+01  0.000000E+00
  3.906250E-01  1.210938E+01  0.000000E+00
  3.906250E-01  1.250000E+01  0.000000E+00
  3.906250E-01  1.289062E+01  0.000000E+00
  3.906250E-01  1.328125E+01  0.000000E+00
  3.906250E-01  1.367188E+01  0.000000E+00
  3.906250E-01  1.406250E+01  0.000000E+00
  3.906250E-01  1.445312E+01  0.000000E+00
  3.906250E-01  1.484375E+01  0.000000E+00
  3.906250E-01  1.523438E+01  0.000000E+00
  3.906250E-01  1.562500E+01  0.000000E+00
  3.906250E-01  1.601562E+01  0.000000E+00
  3.906250E-01  1.640625E+01  0.000000E+00
  3.906250E-01  1.679688E+01  0.000000E+00
  3.906250E-01  1.718750E+01  0.000000E+00
  3.906250E-01  1.757812E+01  0.000000E+00
  3.906250E-01  1.796875E+01  0.000000E+00
  3.906250E-01  1.835938E+01  0.000000E+00
  3.906250E-01  1.875000E+01  0.000000E+00
  3.906250E-01  1.914062E+01  0.000000E+00
  3.906250E-01  1.953125E+01  0.000000E+00
  3.906250E-01  1.992188E+01  0.000000E+00
  3.906250E-01  2.031250E+01  0.000000E+00
  3.906250E-01  2.070312E+01  0.000000E+00
  3.906250E-01  2.109375E+01  0.000000E+00
  3.906250E-01  2.148438E+01  0.000000E+00
  3.906250E-01  2.187500E+01  0.000000E+00
  3.906250E-01  2.226562E+01  0.000000E+00
  3.906250E-01  2.265625E+01  0.000000E+00
  3.906250E-01  2.304688E+01  0.000000E+00
  3.906250E-01  2.343750E+01  0.000000E+00
  3.906250E-01  2.382812E+01  0.000000E+00
  3.906250E-01  2.421875E+01  0.000000E+00
  3.906250E-01  2.460938E+01  0.000000E+00
  7.812500E-01  0.000000E+00  0.000000E+00
  7.812500E-01  3.906250E-01  0.000000E+00
  7.812500E-01  7.812500E-01  0.000000E+00
  7.812500E-01  1.171875E+00  0.000000E+00
  7.812500E-01  1.562500E+00  0.000000E+00
  7.812500E-01  1.953125E+00  0.000000E+00
  7.812500E-01  2.343750E+00  0.000000E+00
  7.812500E-01  2.734375E+00  0.000000E+00
  7.812500E-01  3.125000E+00  0.000000E+00
  7.812500E-01  3.515625E+00  0.000000E+00
  7.812500E-01  3.906250E+00  0.000000E+00
  7.812500E-01  4.296875E+00  0.000000E+00
  7.812500E-01  4.687500E+00  0.000000E+00
  7.812500E-01  5.078125E+00  0.000000E+00
  7.812500E-01  5.468750E+00  0.000000E+00
  7.812500E-01  5.859375E+00  0.000000E+00
  7.812500E-01  6.250000E+00  0.000000E+00
  7.812500E-01  6.640625E+00  0.000000E+00
  7.812500E-01  7.031250E+00  0.000000E+00
  7.812500E-01  7.421875E+00  0.000000E+00
  7.812500E-01  7.812500E+00  0.000000E+00
  7.812500E-01  8.203125E+00  0.000000E+00
  7.812500E-01  8.593750E+00  0.000000E+00
  7.812500E-01  8.984375E+00  0.000000E+00
  7.812500E-01  9.375000E+00  0.000000E+00
  7.812500E-01  9.765625E+00  0.000000E+00
  7.812500E-01  1.015625E+01  0.000000E+00
  7.812500E-01  1.054688E+01  0.000000E+00
  7.812500E-01  1.093750E+01  0.000000E+00
  7.812500E-01  1.132812E+01  0.000000E+00
  7.812500E-01  1.171875E+01  0.000000E+00
  7.812500E-01  1.210938E+01  0.000000E+00
  7.812500E-01  1.250000E+01  0.000000E+00
  7.812500E-01  1.289062E+01  0.000000E+00
  7.812500E-01  1.328125E+01  0.000000E+00
  7.812500E-01  1.367188E+01  0.000000E+00
  7.812500E-01  1.406250E+01  0.000000E+00
  7.812500E-01  1.445312E+01  0.000000E+00
  7.812500E-01  1.484375E+01  0.000000E+00
  7.812500E-01  1.523438E+01  0.000000E+00
  7.812500E-01  1.562500E+01  0.000000E+00
  7.812500E-01  1.601562E+01  0.000000E+00
  7.812500E-01  1.640625E+01  0.000000E+00
  7.812500E-01  1.679688E+01  0.000000E+00
  7.812500E-01  1.718750E+01  0.000000E+00
  7.812500E-01  1.757812E+01  0.000000E+00
  7.812500E-01  1.796875E+01  0.000000E+00
  7.812500E-01  1.835938E+01  0.000000E+00
  7.812500E-01  1.875000E+01  0.000000E+00
  7.812500E-01  1.914062E+01  0.000000E+00
  7.812500E-01  1.953125E+01  0.000000E+00
  7.812500E-01  1.992188E+01  0.000000E+00
  7.812500E-01  2.031250E+01  0.000000E+00
  7.812500E-01  2.070312E+01  0.000000E+00
  7.812500E-01  2.109375E+01  0.000000E+00
  7.812500E-01  2.148438E+01  0.000000E+00
  7.812500E-01  2.187500E+01  0.000000E+00
  7.812500E-01  2.226562E+01  0.000000E+00
  7.812500E-01  2.265625E+01  0.000000E+00
  7.812500E-01  2.304688E+01  0.000000E+00
  7.812500E-01  2.343750E+01  0.000000E+00
  7.812500E-01  2.382812E+01  0.000000E+00
  7.812500E-01  2.421875E+01  0.000000E+00
  7.812500E-01  2.460938E+01  0.000000E+00
  1.171875E+00  0.000000E+00  0.000000E+00
  1.171875E+00  3.906250E-01  0.000000E+00
  1.171875E+00  7.812500E-01  0.000000E+00
  1.171875E+00  1.171875E+00  0.000000E+00
  1.171875E+00  1.562500E+00  0.000000E+00
  1.171875E+00  1.953125E+00  0.000000E+00
  1.171875E+00  2.343750E+00  0.000000E+00
  1.171875E+00  2.734375E+00  0.000000E+00
  1.171875E+00  3.125000E+00  0.000000E+00
  1.171875E+00  3.515625E+00  0.000000E+00
  1.171875E+00  3.906250E+00  0.000000E+00
  1.171875E+00  4.296875E+00  0.000000E+00
  1.171875E+00  4.687500E+00  0.000000E+00
  1.171875E+00  5.078125E+00  0.000000E+00
  1.171875E+00  5.468750E+00  0.000000E+00
  1.171875E+00  5.859375E+00  0.000000E+00
  1.171875E+00  6.250000E+00  0.000000E+00
  1.171875E+00  6.640625E+00  0.000000E+00
  1.171875E+00  7.031250E+00  0.000000E+00
  1.171875E+00  7.421875E+00  0.000000E+00
  1.171875E+00  7.812500E+00  0.000000E+00
  1.171875E+00  8.203125E+00  0.000000E+00
  1.171875E+00  8.593750E+00  0.000000E+00
  1.171875E+00  8.984375E+00  0.000000E+00
  1.171875E+00  9.375000E+00  0.000000E+00
  1.171875E+00  9.765625E+00  0.000000E+00
  1.171875E+00  1.015625E+01  0.000000E+00
  1.171875E+00  1.054688E+01  0.000000E+00
  1.171875E+00  1.093750E+01  0.000000E+00
  1.171875E+00  1.132812E+01  0.000000E+00
  1.171875E+00  1.171875E+01  0.000000E+00
  1.171875E+00  1.210938E+01  0.000000E+00
  1.171875E+00  1.250000E+01  0.000000E+00
  1.171875E+00  1.289062E+01  0.000000E+00
  1.171875E+00  1.328125E+01  0.000000E+00
  1.171875E+00  1.367188E+01  0.000000E+00
  1.171875E+00  1.406250E+01  0.000000E+00
  1.171875E+00  1.445312E+01  0.000000E+00
[...]
POINT_DATA   4096
SCALARS CON  float  1
LOOKUP_TABLE default
  4.710324E-01
  4.748074E-01
  4.852565E-01
  4.800760E-01
  4.800246E-01
  4.694512E-01
  4.718885E-01
  4.690353E-01
  4.781996E-01
  4.761061E-01
  4.797720E-01
  4.699633E-01
  4.692396E-01
  4.614355E-01
  4.675453E-01
  4.671970E-01
  4.770655E-01
  4.748377E-01
  4.789654E-01
  4.706524E-01
  4.712550E-01
  4.624530E-01
  4.639095E-01
  4.560978E-01
  4.588948E-01
  4.542773E-01
  4.626134E-01
  4.641592E-01
  4.759525E-01
  4.753371E-01
  4.802186E-01
  4.720577E-01
  4.735328E-01
  4.676627E-01
  4.741911E-01
  4.714809E-01
  4.764141E-01
  4.684480E-01
  4.683779E-01
  4.589255E-01
  4.608909E-01
  4.546417E-01
  4.583245E-01
  4.519438E-01
  4.557074E-01
  4.526440E-01
  4.639468E-01
  4.698045E-01
  4.855885E-01
  4.856847E-01
  4.863276E-01
  4.699492E-01
  4.630256E-01
  4.532390E-01
  4.634892E-01
  4.730281E-01
  4.947186E-01
  5.002033E-01
  5.041770E-01
  4.882122E-01
  4.784648E-01
  4.618320E-01
  4.615447E-01
  4.588361E-01
  4.725812E-01
  4.783049E-01
  4.900572E-01
  4.877374E-01
  4.863478E-01
  4.731090E-01
  4.691688E-01
  4.624973E-01
  4.692835E-01
  4.711450E-01
  4.799711E-01
  4.769698E-01
  4.778468E-01
  4.689297E-01
  4.690349E-01
  4.643242E-01
  4.704768E-01
  4.697703E-01
  4.755407E-01
  4.704911E-01
  4.710117E-01
  4.631382E-01
  4.644435E-01
  4.597880E-01
  4.643065E-01
  4.614319E-01
  4.666434E-01
  4.647120E-01
  4.718493E-01
  4.717795E-01
  4.788674E-01
  4.755811E-01
  4.772299E-01
  4.688582E-01
  4.682724E-01
  4.615397E-01
  4.651508E-01
  4.625274E-01
  4.676449E-01
  4.630428E-01
  4.639082E-01
  4.552264E-01
  4.542280E-01
  4.469544E-01
  4.504518E-01
  4.503159E-01
  4.623923E-01
  4.694497E-01
  4.831577E-01
  4.826340E-01
  4.818398E-01
  4.680777E-01
  4.641288E-01
  4.602693E-01
  4.738774E-01
  4.855372E-01
  5.032718E-01
  5.034865E-01
  5.004000E-01
  4.824802E-01
  4.728563E-01
  4.603204E-01
  4.618045E-01
  4.610624E-01
  4.628600E-01
  4.778603E-01
  4.913936E-01
  4.930390E-01
  4.868161E-01
  4.735032E-01
  4.646969E-01
  4.602121E-01
  4.644811E-01
  4.698933E-01
  4.768010E-01
  4.777419E-01
  4.768383E-01
  4.715881E-01
  4.691455E-01
  4.666171E-01
  4.683481E-01
  4.686918E-01
  4.709186E-01
  4.699560E-01
  4.703749E-01
  4.680534E-01
  4.676570E-01
  4.647975E-01
  4.641995E-01
  4.620327E-01
  4.633593E-01
  4.637311E-01
  4.666983E-01
  4.664707E-01
  4.668271E-01
  4.638373E-01
  4.634416E-01
  4.624426E-01
  4.654053E-01
  4.666457E-01
  4.689679E-01
  4.669487E-01
  4.652463E-01
  4.602252E-01
  4.571627E-01
  4.521760E-01
  4.501365E-01
  4.472962E-01
  4.491162E-01
  4.523400E-01
  4.616255E-01
  4.708842E-01
  4.807501E-01
  4.824907E-01
  4.790818E-01
  4.688425E-01
  4.621111E-01
  4.599362E-01
  4.691124E-01
  4.828075E-01
  4.984956E-01
  5.034488E-01
  4.982995E-01
  4.813188E-01
  4.642305E-01
  4.494430E-01
  4.454585E-01
  4.490032E-01
  4.635516E-01
  4.792415E-01
  4.875660E-01
  4.926506E-01
  4.823483E-01
  4.707628E-01
  4.550860E-01
  4.509916E-01
  4.506899E-01
  4.620199E-01
  4.704166E-01
  4.803786E-01
  4.787150E-01
  4.762431E-01
  4.667538E-01
  4.644358E-01
  4.616452E-01
  4.676800E-01
  4.699343E-01
  4.754336E-01
  4.729353E-01
  4.733740E-01
  4.686321E-01
  4.697834E-01
  4.664912E-01
  4.676169E-01
  4.628337E-01
  4.629730E-01
  4.597254E-01
  4.637729E-01
  4.642951E-01
  4.689202E-01
  4.657419E-01
  4.646533E-01
  4.578498E-01
  4.580823E-01
  4.570605E-01
  4.637279E-01
  4.652793E-01
  4.687350E-01
  4.632653E-01
  4.604780E-01
  4.533920E-01
  4.541934E-01
  4.538266E-01
  4.614770E-01
  4.657398E-01
  4.744777E-01
  4.753279E-01
  4.765360E-01
  4.684547E-01
  4.641405E-01
  4.581029E-01
  4.634185E-01
  4.702249E-01
  4.845326E-01
  4.900691E-01
  4.920142E-01
  4.802771E-01
  4.696058E-01
  4.556243E-01
  4.515149E-01
  4.483195E-01
  4.557447E-01
  4.578375E-01
  4.773195E-01
  4.824421E-01
  4.891383E-01
  4.749258E-01
  4.665156E-01
  4.495585E-01
  4.499702E-01
  4.475233E-01
  4.608156E-01
  4.646387E-01
  4.761618E-01
  4.717462E-01
  4.738769E-01
  4.641164E-01
  4.668801E-01
  4.622257E-01
  4.709689E-01
  4.700276E-01
  4.787809E-01
  4.743167E-01
  4.780296E-01
  4.691298E-01
  4.701570E-01
  4.606562E-01
  4.627470E-01
  4.556803E-01
  4.608118E-01
  4.564791E-01
  4.630710E-01
  4.585637E-01
  4.639802E-01
  4.583600E-01
  4.638378E-01
  4.597461E-01
  4.672903E-01
  4.642911E-01
  4.709498E-01
  4.651106E-01
  4.681725E-01
  4.596139E-01
  4.622880E-01
  4.562486E-01
  4.632743E-01
  4.616807E-01
  4.716123E-01
  4.702722E-01
  4.778707E-01
  4.719934E-01
  4.739047E-01
  4.628586E-01
  4.621285E-01
  4.529526E-01
  4.586399E-01
  4.586710E-01
  4.725291E-01
  4.749084E-01
  4.830751E-01
  4.734853E-01
  4.692751E-01
  4.528874E-01
  4.497516E-01
  4.418911E-01
  4.518180E-01
  4.644665E-01
  4.771813E-01
  4.765310E-01
  4.826639E-01
  4.694250E-01
  4.635261E-01
  4.462802E-01
  4.463004E-01
  4.422507E-01
  4.564875E-01
  4.613714E-01
  4.755474E-01
  4.714170E-01
  4.735248E-01
  4.615796E-01
  4.642334E-01
  4.602945E-01
  4.729545E-01
  4.746414E-01
  4.851790E-01
  4.781412E-01
  4.789734E-01
  4.665731E-01
  4.675644E-01
  4.584897E-01
  4.623776E-01
  4.547144E-01
  4.598476E-01
  4.553303E-01
  4.655986E-01
  4.654584E-01
  4.758732E-01
  4.701068E-01
  4.721405E-01
  4.607211E-01
  4.636497E-01
  4.591312E-01
  4.699600E-01
  4.687012E-01
  4.762504E-01
  4.680825E-01
  4.707552E-01
  4.635319E-01
  4.718998E-01
  4.707072E-01
  4.810588E-01
  4.761735E-01
  4.794823E-01
  4.678106E-01
  4.671265E-01
  4.552115E-01
  4.574826E-01
  4.512218E-01
  4.602757E-01
  4.595948E-01
  4.704377E-01
  4.662717E-01
  4.703262E-01
  4.600821E-01
  4.621883E-01
  4.544135E-01
  4.606047E-01
  4.563172E-01
  4.653318E-01
  4.623489E-01
  4.726479E-01
  4.726740E-01
  4.770710E-01
  4.672659E-01
  4.634704E-01
  4.520642E-01
  4.536118E-01
  4.514817E-01
  4.615230E-01
  4.633449E-01
  4.715184E-01
  4.669540E-01
  4.685432E-01
  4.615055E-01
  4.661538E-01
  4.658784E-01
  4.770364E-01
  4.790344E-01
  4.864649E-01
  4.798112E-01
  4.777780E-01
  4.650355E-01
  4.618909E-01
  4.524721E-01
  4.549514E-01
  4.517258E-01
  4.594714E-01
  4.595688E-01
  4.683071E-01
  4.671218E-01
  4.732470E-01
  4.692600E-01
  4.738126E-01
  4.701578E-01
  4.761831E-01
  4.733454E-01
  4.780275E-01
  4.717134E-01
  4.726216E-01
  4.647630E-01
  4.679181E-01
  4.656164E-01
  4.748234E-01
  4.756024E-01
  4.829751E-01
  4.775667E-01
  4.776666E-01
  4.673541E-01
  4.662710E-01
  4.577572E-01
  4.594665E-01
  4.537003E-01
  4.578845E-01
  4.545988E-01
  4.611544E-01
  4.593823E-01
  4.659721E-01
  4.625229E-01
  4.663447E-01
  4.601306E-01
  4.623614E-01
  4.568446E-01
  4.625090E-01
  4.678081E-01
  4.689164E-01
  4.687870E-01
  4.717352E-01
  4.692337E-01
  4.668088E-01
  4.601569E-01
  4.584177E-01
  4.577608E-01
  4.641106E-01
  4.687507E-01
  4.740943E-01
  4.717226E-01
  4.687182E-01
  4.625364E-01
  4.632848E-01
  4.667585E-01
  4.773912E-01
  4.843022E-01
  4.886339E-01
  4.822808E-01
  4.740316E-01
  4.625516E-01
  4.577270E-01
  4.543484E-01
  4.571132E-01
  4.581596E-01
  4.627302E-01
  4.651210E-01
  4.718894E-01
  4.761391E-01
  4.818672E-01
  4.808538E-01
  4.792601E-01
  4.732874E-01
  4.722230E-01
  4.713924E-01
  4.756311E-01
  4.758340E-01
  4.761384E-01
  4.710297E-01
  4.694535E-01
  4.679161E-01
  4.728992E-01
  4.759949E-01
  4.800950E-01
  4.771329E-01
  4.739952E-01
  4.668201E-01
  4.638952E-01
  4.600484E-01
  4.613026E-01
  4.610425E-01
  4.645220E-01
  4.644911E-01
  4.658938E-01
  4.623825E-01
  4.613578E-01
  4.588894E-01
  4.624438E-01
  4.651924E-01
  4.707777E-01
  4.708094E-01
  4.712157E-01
  4.606593E-01
  4.614868E-01
  4.658446E-01
  4.688580E-01
  4.721122E-01
  4.718294E-01
  4.720394E-01
  4.709313E-01
  4.726442E-01
  4.735776E-01
  4.755219E-01
  4.737176E-01
  4.711259E-01
  4.660921E-01
  4.644518E-01
  4.650344E-01
  4.712615E-01
  4.779197E-01
  4.846551E-01
  4.848133E-01
  4.805721E-01
  4.707007E-01
  4.621349E-01
  4.549549E-01
  4.540434E-01
  4.561050E-01
  4.627013E-01
  4.681328E-01
  4.733742E-01
  4.742067E-01
  4.744604E-01
  4.724795E-01
  4.731084E-01
  4.740295E-01
  4.781932E-01
  4.808382E-01
  4.830656E-01
  4.801477E-01
  4.755712E-01
  4.680933E-01
  4.636537E-01
  4.610287E-01
  4.636763E-01
  4.668887E-01
  4.715090E-01
  4.724671E-01
  4.726891E-01
  4.701504E-01
  4.696100E-01
  4.685151E-01
  4.696036E-01
  4.686876E-01
  4.684800E-01
  4.660403E-01
  4.653860E-01
  4.640448E-01
  4.655473E-01
  4.664246E-01
  4.691565E-01
  4.695454E-01
  4.700026E-01
  4.670557E-01
  4.645860E-01
  4.608567E-01
  4.609405E-01
  4.575362E-01
  4.618072E-01
  4.663852E-01
  4.742466E-01
  4.761880E-01
  4.777575E-01
  4.745441E-01
  4.753660E-01
  4.750956E-01
  4.786806E-01
  4.772875E-01
  4.755208E-01
  4.680765E-01
  4.643557E-01
  4.616429E-01
  4.676024E-01
  4.741924E-01
  4.829324E-01
  4.828152E-01
  4.787289E-01
  4.674966E-01
  4.606001E-01
  4.557972E-01
  4.599840E-01
  4.648856E-01
  4.732652E-01
  4.761825E-01
  4.791538E-01
  4.770600E-01
  4.776378E-01
  4.751806E-01
  4.755753E-01
  4.724385E-01
  4.726759E-01
  4.710136E-01
  4.737008E-01
  4.731693E-01
  4.738910E-01
  4.690273E-01
  4.660490E-01
  4.610325E-01
  4.618157E-01
  4.621585E-01
  4.666531E-01
  4.673618E-01
  4.698818E-01
  4.686493E-01
  4.707345E-01
  4.700633E-01
  4.723716E-01
  4.711692E-01
  4.730363E-01
  4.722326E-01
  4.747689E-01
  4.734764E-01
  4.738702E-01
  4.702576E-01
  4.704175E-01
  4.692621E-01
  4.723841E-01
  4.714245E-01
  4.707342E-01
  4.643296E-01
  4.520869E-01
  4.532541E-01
  4.590609E-01
  4.657081E-01
  4.733285E-01
  4.776988E-01
  4.804108E-01
  4.798625E-01
  4.796451E-01
  4.781340E-01
  4.772908E-01
  4.739900E-01
  4.703701E-01
  4.652630E-01
  4.629506E-01
  4.627477E-01
  4.671177E-01
  4.721905E-01
  4.773835E-01
  4.775992E-01
  4.742557E-01
  4.667758E-01
  4.608097E-01
  4.572548E-01
  4.600835E-01
  4.665184E-01
  4.759951E-01
  4.820359E-01
  4.836789E-01
  4.783072E-01
  4.710740E-01
  4.638074E-01
  4.619080E-01
  4.638037E-01
  4.700172E-01
  4.748854E-01
  4.774665E-01
  4.741455E-01
  4.685372E-01
  4.612490E-01
  4.572805E-01
  4.555027E-01
  4.575920E-01
  4.597202E-01
  4.628270E-01
  4.642871E-01
  4.669540E-01
  4.691480E-01
  4.729426E-01
  4.748649E-01
  4.759285E-01
  4.735533E-01
  4.712124E-01
  4.685524E-01
  4.694200E-01
  4.717703E-01
  4.767327E-01
  4.799945E-01
  4.819566E-01
  4.793222E-01
  4.746229E-01
  4.667892E-01
  4.599525E-01
  4.537765E-01
  4.551230E-01
  4.546579E-01
  4.569973E-01
  4.647043E-01
  4.709786E-01
  4.762637E-01
  4.755968E-01
  4.741753E-01
  4.710070E-01
  4.715379E-01
  4.715382E-01
  4.726223E-01
  4.693316E-01
  4.656329E-01
  4.601565E-01
  4.595371E-01
  4.616761E-01
  4.691285E-01
  4.745792E-01
  4.777529E-01
  4.733775E-01
  4.673585E-01
  4.603618E-01
  4.598149E-01
  4.631078E-01
  4.720228E-01
  4.790749E-01
  4.843175E-01
  4.825101E-01
  4.787284E-01
  4.719886E-01
  4.681577E-01
  4.641775E-01
  4.634918E-01
  4.621544E-01
  4.637497E-01
  4.642039E-01
  4.663181E-01
  4.653946E-01
  4.648143E-01
  4.615858E-01
  4.606945E-01
  4.594496E-01
  4.616293E-01
  4.629017E-01
  4.662682E-01
  4.677440E-01
  4.709140E-01
  4.715692E-01
  4.725981E-01
  4.699548E-01
  4.683356E-01
  4.660304E-01
  4.683866E-01
  4.716874E-01
  4.777682E-01
  4.804420E-01
  4.821110E-01
  4.795235E-01
  4.778163E-01
  4.740118E-01
  4.714296E-01
  4.656660E-01
  4.608230E-01
  4.524255E-01
  4.563504E-01
  4.583601E-01
  4.652460E-01
  4.679424E-01
  4.730822E-01
  4.721471E-01
  4.733383E-01
  4.696635E-01
  4.697660E-01
  4.659685E-01
  4.659127E-01
  4.616879E-01
  4.616787E-01
  4.590544E-01
  4.624389E-01
  4.640903E-01
  4.709392E-01
  4.733801E-01
  4.772861E-01
  4.735226E-01
  4.705256E-01
  4.626155E-01
  4.605857E-01
  4.589445E-01
  4.659264E-01
  4.715752E-01
  4.796955E-01
  4.786641E-01
  4.755864E-01
  4.652420E-01
  4.599083E-01
  4.551280E-01
  4.593750E-01
  4.628073E-01
  4.697467E-01
  4.694363E-01
  4.691252E-01
  4.626992E-01
  4.606769E-01
  4.570783E-01
  4.599475E-01
  4.604292E-01
  4.649866E-01
  4.650365E-01
  4.685353E-01
  4.680869E-01
  4.716171E-01
  4.705687E-01
  4.718446E-01
  4.671922E-01
  4.653459E-01
  4.603400E-01
  4.619475E-01
  4.633179E-01
  4.716086E-01
  4.767404E-01
  4.837416E-01
  4.825050E-01
  4.805740E-01
  4.714596E-01
  4.654752E-01
  4.569753E-01
  4.551072E-01
  4.627789E-01
  4.632966E-01
  4.615918E-01
  4.657396E-01
  4.665607E-01
  4.700894E-01
  4.674400E-01
  4.671715E-01
  4.630007E-01
  4.640699E-01
  4.624367E-01
  4.648476E-01
  4.623278E-01
  4.627557E-01
  4.595534E-01
  4.623764E-01
  4.644140E-01
  4.728105E-01
  4.771002E-01
  4.820897E-01
  4.780259E-01
  4.737942E-01
  4.645347E-01
  4.615595E-01
  4.588308E-01
  4.637314E-01
  4.662132E-01
  4.715497E-01
  4.703190E-01
  4.707785E-01
  4.664645E-01
  4.665113E-01
  4.632652E-01
  4.642313E-01
  4.613743E-01
  4.628961E-01
  4.613522E-01
  4.645914E-01
  4.640973E-01
  4.670359E-01
  4.653511E-01
  4.674477E-01
  4.661313E-01
  4.694826E-01
  4.691031E-01
  4.721331E-01
  4.701184E-01
  4.708476E-01
  4.665003E-01
  4.653158E-01
  4.601834E-01
  4.602874E-01
  4.590591E-01
  4.646792E-01
  4.680595E-01
  4.746743E-01
  4.743975E-01
  4.746863E-01
  4.691143E-01
  4.679430E-01
  4.646703E-01
  4.668913E-01
  4.652781E-01
  4.665045E-01
  4.664033E-01
  4.694373E-01
  4.676403E-01
  4.679654E-01
  4.659751E-01
  4.679563E-01
  4.676035E-01
  4.696735E-01
  4.675632E-01
  4.669320E-01
  4.626285E-01
  4.614960E-01
  4.588431E-01
  4.610783E-01
  4.624692E-01
  4.681485E-01
  4.714584E-01
  4.774164E-01
  4.795684E-01
  4.828640E-01
  4.803201E-01
  4.771060E-01
  4.680967E-01
  4.614139E-01
  4.542589E-01
  4.543467E-01
  4.557247E-01
  4.616329E-01
  4.630948E-01
  4.641460E-01
  4.600115E-01
  4.592905E-01
  4.586688E-01
  4.641824E-01
  4.680747E-01
  4.731795E-01
  4.718129E-01
  4.701643E-01
  4.646433E-01
  4.634217E-01
  4.619482E-01
  4.656858E-01
  4.675691E-01
  4.718683E-01
  4.717443E-01
  4.727032E-01
  4.692978E-01
  4.680305E-01
  4.638508E-01
  4.631428E-01
  4.605612E-01
  4.620290E-01
  4.616684E-01
  4.648220E-01
  4.651876E-01
  4.680046E-01
  4.669865E-01
  4.674921E-01
  4.636188E-01
  4.617797E-01
  4.576610E-01
  4.585462E-01
  4.592245E-01
  4.644165E-01
  4.803589E-01
  4.785918E-01
  4.730330E-01
  4.693662E-01
  4.663028E-01
  4.664604E-01
  4.659629E-01
  4.666724E-01
  4.654752E-01
  4.653697E-01
  4.638718E-01
  4.639998E-01
  4.631376E-01
  4.643367E-01
  4.651395E-01
  4.686076E-01
  4.719135E-01
  4.773006E-01
  4.807535E-01
  4.835258E-01
  4.814868E-01
  4.772814E-01
  4.693513E-01
  4.627330E-01
  4.566235E-01
  4.546515E-01
  4.536709E-01
  4.555024E-01
  4.566549E-01
  4.598086E-01
  4.623332E-01
  4.667340E-01
  4.692122E-01
  4.713960E-01
  4.700608E-01
  4.688029E-01
  4.662769E-01
  4.663350E-01
  4.661447E-01
  4.677820E-01
  4.679500E-01
  4.696466E-01
  4.704807E-01
  4.730287E-01
  4.733450E-01
  4.729540E-01
  4.686819E-01
  4.643704E-01
  4.590959E-01
  4.574520E-01
  4.576691E-01
  4.623984E-01
  4.674550E-01
  4.732212E-01
  4.743156E-01
  4.720700E-01
  4.642492E-01
  4.563142E-01
  4.490532E-01
  4.481250E-01
  4.517212E-01
  4.612148E-01
  4.705467E-01
  4.786887E-01
  4.828079E-01
  4.826659E-01
  4.775243E-01
  4.705309E-01
  4.656637E-01
  4.644208E-01
  4.664139E-01
  4.690226E-01
  4.701341E-01
  4.684189E-01
  4.650534E-01
  4.618571E-01
  4.611186E-01
  4.632468E-01
  4.675787E-01
  4.718049E-01
  4.745383E-01
  4.752762E-01
  4.754577E-01
  4.758473E-01
  4.763766E-01
  4.750683E-01
  4.707988E-01
  4.637461E-01
  4.566638E-01
  4.520374E-01
  4.513851E-01
  4.534128E-01
  4.561875E-01
  4.578487E-01
  4.590325E-01
  4.611611E-01
  4.657775E-01
  4.718732E-01
  4.772377E-01
  4.788747E-01
  4.761359E-01
  4.702045E-01
  4.642853E-01
  4.606618E-01
  4.607249E-01
  4.636682E-01
  4.681260E-01
  4.716526E-01
  4.727062E-01
  4.702528E-01
  4.654153E-01
  4.599617E-01
  4.565573E-01
  4.565474E-01
  4.603977E-01
  4.663222E-01
  4.718974E-01
  4.741273E-01
  4.721530E-01
  4.666378E-01
  4.601384E-01
  4.543874E-01
  4.507558E-01
  4.495493E-01
  4.518204E-01
  4.578927E-01
  4.672795E-01
  4.767800E-01
  4.902515E-01
  4.845916E-01
  4.780161E-01
  4.687654E-01
  4.649467E-01
  4.615758E-01
  4.630822E-01
  4.625376E-01
  4.643794E-01
  4.628915E-01
  4.639685E-01
  4.627683E-01
  4.651366E-01
  4.654325E-01
  4.684457E-01
  4.679356E-01
  4.692068E-01
  4.673049E-01
  4.685825E-01
  4.679721E-01
  4.705051E-01
  4.696462E-01
  4.700214E-01
  4.661091E-01
  4.642377E-01
  4.599181E-01
  4.592397E-01
  4.570253E-01
  4.590458E-01
  4.603012E-01
  4.663546E-01
  4.708201E-01
  4.772048E-01
  4.778600E-01
  4.774460E-01
  4.715150E-01
  4.679539E-01
  4.631970E-01
  4.632424E-01
  4.620481E-01
  4.645027E-01
  4.651257E-01
  4.693364E-01
  4.706779E-01
  4.728012E-01
  4.686994E-01
  4.642229E-01
  4.561761E-01
  4.530355E-01
  4.515901E-01
  4.577042E-01
  4.644383E-01
  4.741658E-01
  4.778872E-01
  4.788709E-01
  4.716141E-01
  4.639265E-01
  4.537719E-01
  4.499026E-01
  4.489942E-01
  4.568142E-01
  4.663030E-01
  4.794872E-01
  4.866389E-01
  4.822716E-01
  4.784021E-01
  4.764713E-01
  4.664341E-01
  4.639696E-01
  4.585787E-01
  4.623696E-01
  4.611211E-01
  4.651182E-01
  4.610909E-01
  4.622708E-01
  4.581573E-01
  4.625475E-01
  4.628950E-01
  4.696493E-01
  4.678161E-01
  4.686323E-01
  4.609312E-01
  4.601774E-01
  4.566495E-01
  4.629643E-01
  4.645400E-01
  4.706754E-01
  4.673201E-01
  4.679000E-01
  4.623319E-01
  4.647089E-01
  4.624547E-01
  4.666406E-01
  4.640047E-01
  4.675992E-01
  4.664707E-01
  4.736668E-01
  4.753828E-01
  4.814867E-01
  4.772136E-01
  4.749488E-01
  4.642850E-01
  4.607561E-01
  4.544719E-01
  4.586336E-01
  4.600940E-01
  4.690361E-01
  4.702106E-01
  4.737831E-01
  4.666734E-01
  4.630379E-01
  4.535054E-01
  4.533034E-01
  4.515975E-01
  4.600656E-01
  4.640589E-01
  4.728287E-01
  4.717190E-01
  4.732755E-01
  4.670210E-01
  4.677104E-01
  4.637120E-01
  4.667162E-01
  4.634648E-01
  4.667761E-01
  4.656351E-01
  4.731583E-01
  4.755174E-01
  4.796809E-01
  4.722430E-01
  4.728003E-01
  4.636730E-01
  4.647008E-01
  4.573822E-01
  4.602773E-01
  4.544297E-01
  4.585485E-01
  4.542018E-01
  4.603916E-01
  4.584384E-01
  4.665153E-01
  4.646747E-01
  4.703020E-01
  4.636860E-01
  4.642530E-01
  4.550203E-01
  4.568812E-01
  4.524780E-01
  4.603504E-01
  4.605657E-01
  4.701314E-01
  4.689090E-01
  4.753819E-01
  4.708661E-01
  4.747231E-01
  4.686280E-01
  4.724223E-01
  4.683626E-01
  4.758515E-01
  4.750662E-01
  4.826529E-01
  4.773437E-01
  4.775625E-01
  4.660444E-01
  4.646352E-01
  4.566166E-01
  4.610610E-01
  4.583693E-01
  4.663180E-01
  4.657202E-01
  4.747701E-01
  4.730726E-01
  4.776134E-01
  4.684567E-01
  4.658286E-01
  4.538244E-01
  4.541051E-01
  4.495256E-01
  4.582419E-01
  4.597928E-01
  4.706263E-01
  4.702544E-01
  4.771279E-01
  4.728556E-01
  4.771871E-01
  4.717393E-01
  4.757310E-01
  4.705194E-01
  4.755449E-01
  4.721643E-01
  4.788326E-01
  4.754306E-01
  4.667731E-01
  4.649970E-01
  4.708308E-01
  4.644619E-01
  4.664238E-01
  4.592620E-01
  4.629594E-01
  4.579663E-01
  4.624172E-01
  4.567560E-01
  4.607138E-01
  4.564672E-01
  4.638440E-01
  4.629924E-01
  4.709279E-01
  4.660762E-01
  4.670174E-01
  4.563511E-01
  4.565454E-01
  4.512262E-01
  4.597082E-01
  4.608806E-01
  4.708899E-01
  4.687812E-01
  4.742676E-01
  4.696955E-01
  4.753704E-01
  4.715055E-01
  4.762090E-01
  4.697944E-01
  4.726641E-01
  4.672531E-01
  4.734963E-01
  4.709927E-01
  4.768760E-01
  4.701378E-01
  4.701519E-01
  4.595713E-01
  4.602160E-01
  4.550679E-01
  4.636961E-01
  4.657553E-01
  4.777293E-01
  4.771520E-01
  4.813183E-01
  4.710775E-01
  4.683647E-01
  4.572517E-01
  4.591539E-01