# vtk DataFile Version 2.0
title
ASCII
DATASET STRUCTURED_GRID
DIMENSIONS   64   64    1
POINTS   4096  float
  0.000000E+00  0.000000E+00  0.000000E+00
  0.000000E+00  3.906250E-01  0.000000E+00
  0.000000E+00  7.812500E-01  0.000000E+00
  0.000000E+00  1.171875E+00  0.000000E+00
  0.000000E+00  1.562500E+00  0.000000E+00
  0.000000E+00  1.953125E+00  0.000000E+00
  0.000000E+00  2.343750E+00  0.000000E+00
  0.000000E+00  2.734375E+00  0.000000E+00
  0.000000E+00  3.125000E+00  0.000000E+00
  0.000000E+00  3.515625E+00  0.000000E+00
  0.000000E+00  3.906250E+00  0.000000E+00
  0.000000E+00  4.296875E+00  0.000000E+00
  0.000000E+00  4.687500E+00  0.000000E+00
  0.000000E+00  5.078125E+00  0.000000E+00
  0.000000E+00  5.468750E+00  0.000000E+00
  0.000000E+00  5.859375E+00  0.000000E+00
  0.000000E+00  6.250000E+00  0.000000E+00
  0.000000E+00  6.640625E+00  0.000000E+00
  0.000000E+00  7.031250E+00  0.000000E+00
  0.000000E+00  7.421875E+00  0.000000E+00
  0.000000E+00  7.812500E+00  0.000000E+00
  0.000000E+00  8.203125E+00  0.000000E+00
  0.000000E+00  8.593750E+00  0.000000E+00
  0.000000E+00  8.984375E+00  0.000000E+00
  0.000000E+00  9.375000E+00  0.000000E+00
  0.000000E+00  9.765625E+00  0.000000E+00
  0.000000E+00  1.015625E+01  0.000000E+00
  0.000000E+00  1.054688E+01  0.000000E+00
  0.000000E+00  1.093750E+01  0.000000E+00
  0.000000E+00  1.132812E+01  0.000000E+00
  0.000000E+00  1.171875E+01  0.000000E+00
  0.000000E+00  1.210938E+01  0.000000E+00
  0.000000E+00  1.250000E+01  0.000000E+00
  0.000000E+00  1.289062E+01  0.000000E+00
  0.000000E+00  1.328125E+01  0.000000E+00
  0.000000E+00  1.367188E+01  0.000000E+00
  0.000000E+00  1.406250E+01  0.000000E+00
  0.000000E+00  1.445312E+01  0.000000E+00
  0.000000E+00  1.484375E+01  0.000000E+00
  0.000000E+00  1.523438E+01  0.000000E+00
  0.000000E+00  1.562500E+01  0.000000E+00
  0.000000E+00  1.601562E+01  0.000000E+00
  0.000000E+00  1.640625E+01  0.000000E+00
  0.000000E+00  1.679688E+01  0.000000E+00
  0.000000E+00  1.718750E+01  0.000000E+00
  0.000000E+00  1.757812E+01  0.000000E+00
  0.000000E+00  1.796875E+01  0.000000E+00
  0.000000E+00  1.835938E+01  0.000000E+00
  0.000000E+00  1.875000E+01  0.000000E+00
  0.000000E+00  1.914062E+01  0.000000E+00
  0.000000E+00  1.953125E+01  0.000000E+00
  0.000000E+00  1.992188E+01  0.000000E+00
  0.000000E+00  2.031250E+01  0.000000E+00
  0.000000E+00  2.070312E+01  0.000000E+00
  0.000000E+00  2.109375E+01  0.000000E+00
  0.000000E+00  2.148438E+01  0.000000E+00
  0.000000E+00  2.187500E+01  0.000000E+00
  0.000000E+00  2.226562E+01  0.000000E+00
  0.000000E+00  2.265625E+01  0.000000E+00
  0.000000E+00  2.304688E+01  0.000000E+00
  0.000000E+00  2.343750E+01  0.000000E+00
  0.000000E+00  2.382812E+01  0.000000E+00
  0.000000E+00  2.421875E+01  0.000000E+00
  0.000000E+00  2.460938E+01  0.000000E+00
  3.906250E-01  0.000000E+00  0.000000E+00
  3.906250E-01  3.906250E-01  0.000000E+00
  3.906250E-01  7.812500E-01  0.000000E+00
  3.906250E-01  1.171875E+00  0.000000E+00
  3.906250E-01  1.562500E+00  0.000000E+00
  3.906250E-01  1.953125E+00  0.000000E+00
  3.906250E-01  2.343750E+00  0.000000E+00
  3.906250E-01  2.734375E+00  0.000000E+00
  3.906250E-01  3.125000E+00  0.000000E+00
  3.906250E-01  3.515625E+00  0.000000E+00
  3.906250E-01  3.906250E+00  0.000000E+00
  3.906250E-01  4.296875E+00  0.000000E+00
  3.906250E-01  4.687500E+00  0.000000E+00
  3.906250E-01  5.078125E+00  0.000000E+00
  3.906250E-01  5.468750E+00  0.000000E+00
  3.906250E-01  5.859375E+00  0.000000E+00
  3.906250E-01  6.250000E+00  0.000000E+00
  3.906250E-01  6.640625E+00  0.000000E+00
  3.906250E-01  7.031250E+00  0.000000E+00
  3.906250E-01  7.421875E+00  0.000000E+00
  3.906250E-01  7.812500E+00  0.000000E+00
  3.906250E-01  8.203125E+00  0.000000E+00
  3.906250E-01  8.593750E+00  0.000000E+00
  3.906250E-01  8.984375E+00  0.000000E+00
  3.906250E-01  9.375000E+00  0.000000E+00
  3.906250E-01  9.765625E+00  0.000000E+00
  3.906250E-01  1.015625E+01  0.000000E+00
  3.906250E-01  1.054688E+01  0.000000E+00
  3.906250E-01  1.093750E+01  0.000000E+00
  3.906250E-01  1.132812E+01  0.000000E+00
  3.906250E-01  1.171875E+01  0.000000E+00
  3.906250E-01  1.210938E+01  0.000000E+00
  3.906250E-01  1.250000E+01  0.000000E+00
  3.906250E-01  1.289062E+01  0.000000E+00
  3.906250E-01  1.328125E+01  0.000000E+00
  3.906250E-01  1.367188E+01  0.000000E+00
  3.906250E-01  1.406250E+01  0.000000E+00
  3.906250E-01  1.445312E+01  0.000000E+00
  3.906250E-01  1.484375E+01  0.000000E+00
  3.906250E-01  1.523438E+01  0.000000E+00
  3.906250E-01  1.562500E+01  0.000000E+00
  3.906250E-01  1.601562E+01  0.000000E+00
  3.906250E-01  1.640625E+01  0.000000E+00
  3.906250E-01  1.679688E+01  0.000000E+00
  3.906250E-01  1.718750E+01  0.000000E+00
  3.906250E-01  1.757812E+01  0.000000E+00
  3.906250E-01  1.796875E+01  0.000000E+00
  3.906250E-01  1.835938E+01  0.000000E+00
  3.906250E-01  1.875000E+01  0.000000E+00
  3.906250E-01  1.914062E+01  0.000000E+00
  3.906250E-01  1.953125E+01  0.000000E+00
  3.906250E-01  1.992188E+01  0.000000E+00
  3.906250E-01  2.031250E+01  0.000000E+00
  3.906250E-01  2.070312E+01  0.000000E+00
  3.906250E-01  2.109375E+01  0.000000E+00
  3.906250E-01  2.148438E+01  0.000000E+00
  3.906250E-01  2.187500E+01  0.000000E+00
  3.906250E-01  2.226562E+01  0.000000E+00
  3.906250E-01  2.265625E+01  0.000000E+00
  3.906250E-01  2.304688E+01  0.000000E+00
  3.906250E-01  2.343750E+01  0.000000E+00
  3.906250E-01  2.382812E+01  0.000000E+00
  3.906250E-01  2.421875E+01  0.000000E+00
  3.906250E-01  2.460938E+01  0.000000E+00
  7.812500E-01  0.000000E+00  0.000000E+00
  7.812500E-01  3.906250E-01  0.000000E+00
  7.812500E-01  7.812500E-01  0.000000E+00
  7.812500E-01  1.171875E+00  0.000000E+00
  7.812500E-01  1.562500E+00  0.000000E+00
  7.812500E-01  1.953125E+00  0.000000E+00
  7.812500E-01  2.343750E+00  0.000000E+00
  7.812500E-01  2.734375E+00  0.000000E+00
  7.812500E-01  3.125000E+00  0.000000E+00
  7.812500E-01  3.515625E+00  0.000000E+00
  7.812500E-01  3.906250E+00  0.000000E+00
  7.812500E-01  4.296875E+00  0.000000E+00
  7.812500E-01  4.687500E+00  0.000000E+00
  7.812500E-01  5.078125E+00  0.000000E+00
  7.812500E-01  5.468750E+00  0.000000E+00
  7.812500E-01  5.859375E+00  0.000000E+00
  7.812500E-01  6.250000E+00  0.000000E+00
  7.812500E-01  6.640625E+00  0.000000E+00
  7.812500E-01  7.031250E+00  0.000000E+00
  7.812500E-01  7.421875E+00  0.000000E+00
  7.812500E-01  7.812500E+00  0.000000E+00
  7.812500E-01  8.203125E+00  0.000000E+00
  7.812500E-01  8.593750E+00  0.000000E+00
  7.812500E-01  8.984375E+00  0.000000E+00
  7.812500E-01  9.375000E+00  0.000000E+00
  7.812500E-01  9.765625E+00  0.000000E+00
  7.812500E-01  1.015625E+01  0.000000E+00
  7.812500E-01  1.054688E+01  0.000000E+00
  7.812500E-01  1.093750E+01  0.000000E+00
  7.812500E-01  1.132812E+01  0.000000E+00
  7.812500E-01  1.171875E+01  0.000000E+00
  7.812500E-01  1.210938E+01  0.000000E+00
  7.812500E-01  1.250000E+01  0.000000E+00
  7.812500E-01  1.289062E+01  0.000000E+00
  7.812500E-01  1.328125E+01  0.000000E+00
  7.812500E-01  1.367188E+01  0.000000E+00
  7.812500E-01  1.406250E+01  0.000000E+00
  7.812500E-01  1.445312E+01  0.000000E+00
  7.812500E-01  1.484375E+01  0.000000E+00
  7.812500E-01  1.523438E+01  0.000000E+00
  7.812500E-01  1.562500E+01  0.000000E+00
  7.812500E-01  1.601562E+01  0.000000E+00
  7.812500E-01  1.640625E+01  0.000000E+00
  7.812500E-01  1.679688E+01  0.000000E+00
  7.812500E-01  1.718750E+01  0.000000E+00
  7.812500E-01  1.757812E+01  0.000000E+00
  7.812500E-01  1.796875E+01  0.000000E+00
  7.812500E-01  1.835938E+01  0.000000E+00
  7.812500E-01  1.875000E+01  0.000000E+00
  7.812500E-01  1.914062E+01  0.000000E+00
  7.812500E-01  1.953125E+01  0.000000E+00
  7.812500E-01  1.992188E+01  0.000000E+00
  7.812500E-01  2.031250E+01  0.000000E+00
  7.812500E-01  2.070312E+01  0.000000E+00
  7.812500E-01  2.109375E+01  0.000000E+00
  7.812500E-01  2.148438E+01  0.000000E+00
  7.812500E-01  2.187500E+01  0.000000E+00
  7.812500E-01  2.226562E+01  0.000000E+00
  7.812500E-01  2.265625E+01  0.000000E+00
  7.812500E-01  2.304688E+01  0.000000E+00
  7.812500E-01  2.343750E+01  0.000000E+00
  7.812500E-01  2.382812E+01  0.000000E+00
  7.812500E-01  2.421875E+01  0.000000E+00
  7.812500E-01  2.460938E+01  0.000000E+00
  1.171875E+00  0.000000E+00  0.000000E+00
  1.171875E+00  3.906250E-01  0.000000E+00
  1.171875E+00  7.812500E-01  0.000000E+00
  1.171875E+00  1.171875E+00  0.000000E+00
  1.171875E+00  1.562500E+00  0.000000E+00
  1.171875E+00  1.953125E+00  0.000000E+00
  1.171875E+00  2.343750E+00  0.000000E+00
  1.171875E+00  2.734375E+00  0.000000E+00
  1.171875E+00  3.125000E+00  0.000000E+00
  1.171875E+00  3.515625E+00  0.000000E+00
  1.171875E+00  3.906250E+00  0.000000E+00
  1.171875E+00  4.296875E+00  0.000000E+00
  1.171875E+00  4.687500E+00  0.000000E+00
  1.171875E+00  5.078125E+00  0.000000E+00
  1.171875E+00  5.468750E+00  0.000000E+00
  1.171875E+00  5.859375E+00  0.000000E+00
  1.171875E+00  6.250000E+00  0.000000E+00
  1.171875E+00  6.640625E+00  0.000000E+00
  1.171875E+00  7.031250E+00  0.000000E+00
  1.171875E+00  7.421875E+00  0.000000E+00
  1.171875E+00  7.812500E+00  0.000000E+00
  1.171875E+00  8.203125E+00  0.000000E+00
  1.171875E+00  8.593750E+00  0.000000E+00
  1.171875E+00  8.984375E+00  0.000000E+00
  1.171875E+00  9.375000E+00  0.000000E+00
  1.171875E+00  9.765625E+00  0.000000E+00
  1.171875E+00  1.015625E+01  0.000000E+00
  1.171875E+00  1.054688E+01  0.000000E+00
  1.171875E+00  1.093750E+01  0.000000E+00
  1.171875E+00  1.132812E+01  0.000000E+00
  1.171875E+00  1.171875E+01  0.000000E+00
  1.171875E+00  1.210938E+01  0.000000E+00
  1.171875E+00  1.250000E+01  0.000000E+00
  1.171875E+00  1.289062E+01  0.000000E+00
  1.171875E+00  1.328125E+01  0.000000E+00
  1.171875E+00  1.367188E+01  0.000000E+00
  1.171875E+00  1.406250E+01  0.000000E+00
  1.171875E+00  1.445312E+01  0.000000E+00
[...]
POINT_DATA   4096
SCALARS CON  float  1
LOOKUP_TABLE default
  4.704376E-01
  4.679903E-01
  4.730097E-01
  4.735649E-01
  4.745793E-01
  4.666030E-01
  4.651376E-01
  4.650674E-01
  4.728537E-01
  4.725352E-01
  4.718930E-01
  4.659041E-01
  4.677173E-01
  4.666430E-01
  4.691368E-01
  4.654097E-01
  4.677700E-01
  4.684236E-01
  4.738475E-01
  4.709606E-01
  4.702568E-01
  4.652325E-01
  4.660097E-01
  4.626402E-01
  4.648058E-01
  4.625854E-01
  4.643029E-01
  4.619201E-01
  4.677534E-01
  4.712090E-01
  4.758799E-01
  4.688924E-01
  4.646994E-01
  4.617724E-01
  4.698153E-01
  4.715396E-01
  4.719535E-01
  4.655426E-01
  4.655813E-01
  4.619001E-01
  4.641574E-01
  4.636299E-01
  4.665561E-01
  4.621369E-01
  4.643302E-01
  4.644795E-01
  4.666109E-01
  4.623100E-01
  4.685336E-01
  4.735978E-01
  4.760413E-01
  4.662420E-01
  4.641014E-01
  4.629933E-01
  4.677627E-01
  4.688794E-01
  4.773572E-01
  4.793002E-01
  4.799170E-01
  4.730462E-01
  4.737137E-01
  4.720947E-01
  4.742395E-01
  4.699680E-01
  4.698767E-01
  4.682759E-01
  4.759768E-01
  4.806570E-01
  4.813184E-01
  4.704270E-01
  4.642578E-01
  4.629090E-01
  4.704615E-01
  4.709135E-01
  4.692407E-01
  4.648186E-01
  4.689785E-01
  4.702143E-01
  4.706953E-01
  4.650476E-01
  4.659761E-01
  4.683172E-01
  4.757822E-01
  4.760206E-01
  4.743432E-01
  4.659790E-01
  4.626224E-01
  4.601625E-01
  4.649300E-01
  4.659742E-01
  4.679577E-01
  4.652317E-01
  4.683067E-01
  4.702605E-01
  4.739838E-01
  4.690010E-01
  4.661505E-01
  4.639023E-01
  4.685415E-01
  4.678228E-01
  4.680274E-01
  4.647320E-01
  4.660502E-01
  4.640581E-01
  4.656524E-01
  4.628382E-01
  4.619743E-01
  4.576180E-01
  4.597904E-01
  4.607292E-01
  4.641893E-01
  4.641156E-01
  4.726974E-01
  4.795551E-01
  4.810433E-01
  4.695222E-01
  4.641302E-01
  4.634431E-01
  4.701375E-01
  4.732235E-01
  4.791764E-01
  4.786089E-01
  4.769412E-01
  4.695264E-01
  4.685777E-01
  4.684874E-01
  4.729594E-01
  4.707612E-01
  4.630960E-01
  4.671763E-01
  4.773737E-01
  4.820713E-01
  4.795060E-01
  4.693329E-01
  4.655166E-01
  4.660540E-01
  4.703131E-01
  4.696460E-01
  4.694905E-01
  4.682083E-01
  4.707457E-01
  4.708068E-01
  4.712423E-01
  4.682130E-01
  4.689289E-01
  4.702249E-01
  4.742028E-01
  4.735678E-01
  4.726100E-01
  4.679584E-01
  4.654624E-01
  4.627073E-01
  4.650306E-01
  4.655568E-01
  4.659495E-01
  4.631704E-01
  4.649866E-01
  4.661761E-01
  4.673086E-01
  4.632042E-01
  4.623211E-01
  4.636404E-01
  4.696908E-01
  4.709266E-01
  4.703556E-01
  4.666520E-01
  4.663723E-01
  4.644490E-01
  4.650728E-01
  4.633384E-01
  4.618331E-01
  4.564506E-01
  4.558641E-01
  4.580927E-01
  4.647479E-01
  4.690954E-01
  4.769507E-01
  4.812758E-01
  4.796465E-01
  4.691431E-01
  4.645201E-01
  4.650548E-01
  4.702182E-01
  4.726286E-01
  4.778165E-01
  4.795125E-01
  4.776868E-01
  4.682714E-01
  4.624652E-01
  4.599244E-01
  4.621386E-01
  4.611761E-01
  4.620275E-01
  4.675970E-01
  4.768894E-01
  4.820339E-01
  4.759756E-01
  4.659311E-01
  4.608730E-01
  4.632255E-01
  4.668140E-01
  4.689086E-01
  4.692013E-01
  4.711305E-01
  4.735808E-01
  4.743477E-01
  4.710237E-01
  4.678533E-01
  4.675528E-01
  4.705436E-01
  4.723923E-01
  4.723255E-01
  4.704367E-01
  4.693026E-01
  4.687155E-01
  4.699754E-01
  4.711319E-01
  4.710624E-01
  4.681484E-01
  4.650852E-01
  4.628326E-01
  4.634051E-01
  4.653217E-01
  4.675516E-01
  4.679707E-01
  4.682603E-01
  4.677152E-01
  4.670277E-01
  4.656429E-01
  4.652189E-01
  4.658870E-01
  4.693371E-01
  4.711271E-01
  4.680140E-01
  4.621382E-01
  4.607186E-01
  4.627078E-01
  4.654180E-01
  4.665859E-01
  4.682551E-01
  4.711295E-01
  4.749280E-01
  4.733785E-01
  4.669786E-01
  4.626904E-01
  4.666802E-01
  4.736094E-01
  4.784452E-01
  4.797032E-01
  4.794380E-01
  4.749302E-01
  4.675042E-01
  4.615817E-01
  4.614395E-01
  4.625753E-01
  4.622832E-01
  4.593121E-01
  4.698442E-01
  4.747405E-01
  4.787871E-01
  4.692840E-01
  4.642842E-01
  4.598512E-01
  4.646271E-01
  4.635057E-01
  4.679369E-01
  4.684128E-01
  4.738329E-01
  4.713496E-01
  4.725753E-01
  4.683042E-01
  4.703511E-01
  4.683514E-01
  4.724267E-01
  4.696120E-01
  4.705675E-01
  4.672714E-01
  4.718071E-01
  4.704392E-01
  4.718767E-01
  4.670381E-01
  4.686614E-01
  4.651062E-01
  4.659842E-01
  4.607848E-01
  4.623007E-01
  4.617350E-01
  4.682204E-01
  4.666619E-01
  4.679550E-01
  4.653593E-01
  4.699489E-01
  4.668721E-01
  4.664896E-01
  4.625786E-01
  4.680580E-01
  4.675142E-01
  4.676311E-01
  4.610963E-01
  4.644210E-01
  4.662889E-01
  4.726873E-01
  4.694645E-01
  4.683472E-01
  4.631253E-01
  4.673926E-01
  4.662529E-01
  4.667274E-01
  4.618794E-01
  4.668474E-01
  4.681027E-01
  4.729281E-01
  4.719765E-01
  4.767819E-01
  4.726159E-01
  4.696002E-01
  4.615340E-01
  4.612775E-01
  4.562673E-01
  4.582430E-01
  4.653192E-01
  4.728859E-01
  4.724752E-01
  4.762217E-01
  4.674371E-01
  4.644993E-01
  4.570242E-01
  4.601729E-01
  4.579679E-01
  4.648033E-01
  4.646384E-01
  4.711652E-01
  4.690228E-01
  4.723041E-01
  4.660356E-01
  4.675252E-01
  4.643093E-01
  4.710977E-01
  4.703210E-01
  4.744916E-01
  4.694143E-01
  4.723014E-01
  4.675526E-01
  4.683546E-01
  4.614740E-01
  4.650632E-01
  4.641749E-01
  4.694911E-01
  4.631149E-01
  4.642211E-01
  4.645113E-01
  4.757968E-01
  4.730986E-01
  4.700950E-01
  4.607773E-01
  4.650807E-01
  4.637772E-01
  4.672400E-01
  4.636146E-01
  4.711845E-01
  4.692338E-01
  4.671013E-01
  4.577242E-01
  4.659447E-01
  4.727158E-01
  4.817278E-01
  4.739026E-01
  4.684911E-01
  4.585955E-01
  4.640420E-01
  4.649382E-01
  4.683839E-01
  4.615215E-01
  4.657332E-01
  4.651573E-01
  4.700445E-01
  4.658076E-01
  4.694754E-01
  4.656146E-01
  4.692146E-01
  4.661334E-01
  4.696374E-01
  4.639716E-01
  4.668564E-01
  4.670340E-01
  4.711923E-01
  4.694281E-01
  4.699119E-01
  4.651279E-01
  4.647357E-01
  4.620847E-01
  4.629280E-01
  4.594844E-01
  4.626652E-01
  4.648388E-01
  4.696786E-01
  4.670412E-01
  4.667040E-01
  4.637340E-01
  4.663806E-01
  4.663114E-01
  4.713236E-01
  4.723439E-01
  4.746815E-01
  4.711457E-01
  4.720706E-01
  4.678537E-01
  4.632030E-01
  4.540859E-01
  4.550832E-01
  4.589342E-01
  4.669075E-01
  4.655229E-01
  4.650245E-01
  4.653731E-01
  4.738762E-01
  4.726928E-01
  4.676306E-01
  4.615800E-01
  4.675844E-01
  4.704987E-01
  4.719033E-01
  4.676509E-01
  4.697391E-01
  4.672400E-01
  4.646684E-01
  4.589238E-01
  4.640901E-01
  4.710345E-01
  4.801494E-01
  4.777740E-01
  4.722137E-01
  4.629252E-01
  4.643129E-01
  4.657194E-01
  4.680407E-01
  4.638992E-01
  4.648712E-01
  4.622893E-01
  4.625452E-01
  4.602844E-01
  4.642740E-01
  4.651471E-01
  4.704511E-01
  4.713186E-01
  4.721111E-01
  4.660553E-01
  4.665877E-01
  4.685918E-01
  4.663927E-01
  4.662096E-01
  4.682220E-01
  4.686673E-01
  4.683518E-01
  4.674412E-01
  4.661361E-01
  4.641408E-01
  4.645349E-01
  4.666080E-01
  4.690076E-01
  4.688300E-01
  4.669279E-01
  4.649915E-01
  4.663094E-01
  4.696521E-01
  4.744823E-01
  4.781928E-01
  4.784953E-01
  4.742170E-01
  4.707565E-01
  4.687971E-01
  4.654627E-01
  4.596063E-01
  4.576452E-01
  4.618630E-01
  4.684561E-01
  4.695740E-01
  4.674740E-01
  4.697389E-01
  4.774744E-01
  4.791969E-01
  4.718931E-01
  4.645571E-01
  4.662285E-01
  4.716469E-01
  4.735371E-01
  4.716871E-01
  4.722447E-01
  4.723904E-01
  4.681084E-01
  4.626748E-01
  4.644457E-01
  4.711229E-01
  4.766312E-01
  4.764714E-01
  4.720889E-01
  4.668746E-01
  4.664777E-01
  4.682592E-01
  4.677956E-01
  4.650981E-01
  4.653369E-01
  4.670201E-01
  4.675927E-01
  4.654931E-01
  4.633230E-01
  4.631865E-01
  4.677532E-01
  4.728707E-01
  4.746612E-01
  4.729172E-01
  4.712378E-01
  4.613241E-01
  4.618488E-01
  4.639418E-01
  4.689653E-01
  4.700626E-01
  4.723281E-01
  4.736972E-01
  4.745947E-01
  4.704686E-01
  4.694283E-01
  4.703126E-01
  4.726893E-01
  4.694113E-01
  4.669656E-01
  4.668828E-01
  4.722143E-01
  4.751401E-01
  4.780648E-01
  4.781963E-01
  4.772838E-01
  4.716318E-01
  4.694740E-01
  4.688174E-01
  4.686105E-01
  4.637623E-01
  4.622825E-01
  4.636192E-01
  4.688405E-01
  4.695880E-01
  4.685981E-01
  4.677331E-01
  4.730790E-01
  4.749356E-01
  4.729579E-01
  4.697043E-01
  4.736565E-01
  4.763059E-01
  4.752795E-01
  4.694889E-01
  4.680122E-01
  4.676973E-01
  4.688942E-01
  4.666844E-01
  4.659631E-01
  4.650431E-01
  4.678930E-01
  4.691953E-01
  4.701275E-01
  4.679644E-01
  4.691829E-01
  4.696490E-01
  4.698045E-01
  4.665920E-01
  4.666285E-01
  4.671884E-01
  4.701834E-01
  4.698092E-01
  4.685039E-01
  4.649741E-01
  4.657110E-01
  4.657645E-01
  4.658572E-01
  4.634768E-01
  4.634604E-01
  4.612490E-01
  4.610948E-01
  4.644544E-01
  4.719103E-01
  4.721339E-01
  4.717568E-01
  4.700105E-01
  4.718838E-01
  4.705415E-01
  4.716034E-01
  4.708840E-01
  4.727967E-01
  4.708880E-01
  4.704864E-01
  4.684218E-01
  4.702168E-01
  4.693010E-01
  4.715434E-01
  4.731076E-01
  4.753535E-01
  4.697171E-01
  4.659204E-01
  4.645102E-01
  4.686276E-01
  4.688510E-01
  4.703780E-01
  4.701175E-01
  4.725683E-01
  4.702200E-01
  4.687236E-01
  4.672855E-01
  4.724091E-01
  4.741787E-01
  4.737962E-01
  4.693485E-01
  4.709113E-01
  4.718211E-01
  4.720110E-01
  4.669563E-01
  4.665889E-01
  4.661825E-01
  4.680123E-01
  4.670486E-01
  4.689820E-01
  4.667973E-01
  4.651506E-01
  4.615666E-01
  4.629450E-01
  4.643859E-01
  4.703326E-01
  4.725576E-01
  4.726253E-01
  4.671847E-01
  4.672585E-01
  4.704201E-01
  4.776759E-01
  4.772501E-01
  4.727101E-01
  4.645332E-01
  4.631003E-01
  4.624404E-01
  4.649589E-01
  4.649652E-01
  4.657943E-01
  4.602277E-01
  4.611299E-01
  4.648357E-01
  4.688742E-01
  4.686484E-01
  4.679046E-01
  4.692279E-01
  4.713873E-01
  4.707038E-01
  4.701526E-01
  4.708112E-01
  4.717793E-01
  4.698778E-01
  4.677282E-01
  4.668459E-01
  4.669556E-01
  4.651887E-01
  4.650501E-01
  4.678889E-01
  4.708569E-01
  4.688130E-01
  4.654583E-01
  4.638923E-01
  4.645489E-01
  4.653441E-01
  4.680727E-01
  4.709523E-01
  4.726139E-01
  4.708936E-01
  4.673594E-01
  4.636502E-01
  4.634450E-01
  4.647472E-01
  4.661033E-01
  4.674615E-01
  4.710532E-01
  4.728682E-01
  4.709310E-01
  4.658966E-01
  4.616091E-01
  4.591521E-01
  4.617515E-01
  4.670954E-01
  4.703892E-01
  4.679056E-01
  4.638314E-01
  4.610001E-01
  4.620151E-01
  4.659229E-01
  4.714331E-01
  4.736783E-01
  4.720569E-01
  4.680735E-01
  4.665591E-01
  4.685428E-01
  4.735699E-01
  4.761591E-01
  4.741315E-01
  4.688513E-01
  4.660911E-01
  4.656006E-01
  4.654914E-01
  4.636411E-01
  4.619633E-01
  4.640985E-01
  4.626668E-01
  4.642320E-01
  4.671428E-01
  4.681955E-01
  4.680084E-01
  4.682198E-01
  4.683010E-01
  4.675793E-01
  4.672339E-01
  4.678274E-01
  4.691751E-01
  4.698299E-01
  4.684471E-01
  4.657011E-01
  4.638977E-01
  4.639439E-01
  4.667601E-01
  4.720057E-01
  4.755629E-01
  4.733426E-01
  4.681160E-01
  4.646595E-01
  4.638545E-01
  4.648042E-01
  4.684054E-01
  4.736096E-01
  4.764616E-01
  4.743070E-01
  4.694954E-01
  4.660153E-01
  4.656472E-01
  4.663393E-01
  4.656336E-01
  4.641244E-01
  4.648394E-01
  4.674448E-01
  4.687898E-01
  4.675535E-01
  4.648198E-01
  4.614832E-01
  4.606364E-01
  4.648392E-01
  4.708525E-01
  4.726494E-01
  4.697810E-01
  4.662869E-01
  4.661113E-01
  4.696974E-01
  4.735914E-01
  4.732145E-01
  4.688924E-01
  4.649158E-01
  4.647035E-01
  4.680076E-01
  4.723761E-01
  4.741494E-01
  4.719356E-01
  4.686459E-01
  4.688049E-01
  4.719117E-01
  4.734417E-01
  4.711937E-01
  4.674362E-01
  4.623607E-01
  4.653291E-01
  4.645163E-01
  4.666997E-01
  4.669818E-01
  4.706394E-01
  4.708327E-01
  4.702825E-01
  4.650930E-01
  4.654602E-01
  4.668485E-01
  4.705143E-01
  4.679926E-01
  4.661846E-01
  4.636838E-01
  4.672638E-01
  4.695548E-01
  4.741158E-01
  4.751152E-01
  4.768717E-01
  4.733252E-01
  4.712883E-01
  4.664014E-01
  4.637448E-01
  4.598982E-01
  4.634420E-01
  4.679733E-01
  4.738402E-01
  4.725841E-01
  4.704743E-01
  4.654091E-01
  4.656628E-01
  4.651815E-01
  4.668400E-01
  4.657645E-01
  4.687067E-01
  4.687005E-01
  4.695595E-01
  4.666340E-01
  4.652543E-01
  4.606809E-01
  4.618352E-01
  4.639138E-01
  4.677945E-01
  4.668472E-01
  4.692106E-01
  4.696705E-01
  4.723794E-01
  4.723093E-01
  4.734006E-01
  4.683055E-01
  4.650190E-01
  4.618962E-01
  4.633979E-01
  4.621790E-01
  4.647638E-01
  4.667828E-01
  4.712905E-01
  4.710990E-01
  4.730253E-01
  4.720855E-01
  4.707670E-01
  4.639966E-01
  4.624377E-01
  4.659392E-01
  4.684409E-01
  4.665854E-01
  4.696747E-01
  4.696636E-01
  4.717377E-01
  4.677081E-01
  4.657048E-01
  4.616177E-01
  4.644204E-01
  4.651509E-01
  4.688709E-01
  4.672877E-01
  4.670620E-01
  4.631033E-01
  4.659786E-01
  4.678755E-01
  4.727689E-01
  4.726099E-01
  4.750323E-01
  4.720063E-01
  4.708975E-01
  4.661357E-01
  4.657260E-01
  4.624196E-01
  4.642980E-01
  4.648682E-01
  4.696780E-01
  4.690046E-01
  4.699754E-01
  4.679804E-01
  4.719288E-01
  4.721339E-01
  4.722081E-01
  4.661690E-01
  4.657737E-01
  4.645709E-01
  4.670757E-01
  4.658893E-01
  4.692817E-01
  4.682483E-01
  4.687038E-01
  4.651708E-01
  4.660914E-01
  4.646144E-01
  4.683163E-01
  4.682793E-01
  4.700332E-01
  4.675556E-01
  4.683272E-01
  4.637482E-01
  4.627673E-01
  4.611699E-01
  4.651577E-01
  4.649413E-01
  4.676615E-01
  4.670922E-01
  4.702978E-01
  4.697293E-01
  4.725014E-01
  4.703174E-01
  4.693487E-01
  4.643495E-01
  4.658801E-01
  4.659929E-01
  4.683738E-01
  4.668565E-01
  4.671481E-01
  4.676711E-01
  4.696018E-01
  4.692656E-01
  4.682096E-01
  4.652041E-01
  4.648929E-01
  4.651675E-01
  4.665317E-01
  4.650159E-01
  4.639559E-01
  4.637544E-01
  4.672559E-01
  4.686912E-01
  4.681374E-01
  4.658233E-01
  4.676369E-01
  4.701701E-01
  4.720187E-01
  4.694877E-01
  4.669072E-01
  4.635535E-01
  4.616229E-01
  4.592678E-01
  4.611580E-01
  4.645167E-01
  4.673103E-01
  4.659926E-01
  4.668873E-01
  4.680941E-01
  4.685263E-01
  4.666192E-01
  4.678863E-01
  4.680638E-01
  4.668658E-01
  4.645351E-01
  4.663901E-01
  4.686389E-01
  4.710829E-01
  4.693460E-01
  4.655969E-01
  4.619604E-01
  4.646249E-01
  4.671828E-01
  4.671562E-01
  4.640350E-01
  4.627768E-01
  4.607197E-01
  4.617532E-01
  4.649324E-01
  4.693417E-01
  4.690545E-01
  4.679447E-01
  4.669040E-01
  4.688921E-01
  4.696584E-01
  4.695502E-01
  4.655879E-01
  4.617209E-01
  4.589574E-01
  4.620487E-01
  4.733372E-01
  4.691706E-01
  4.668138E-01
  4.648977E-01
  4.674403E-01
  4.673682E-01
  4.687476E-01
  4.678112E-01
  4.689144E-01
  4.658916E-01
  4.644280E-01
  4.627823E-01
  4.654835E-01
  4.653808E-01
  4.675463E-01
  4.687091E-01
  4.709647E-01
  4.672924E-01
  4.664013E-01
  4.681529E-01
  4.742261E-01
  4.736781E-01
  4.712422E-01
  4.673812E-01
  4.678289E-01
  4.640722E-01
  4.611534E-01
  4.599231E-01
  4.653626E-01
  4.664687E-01
  4.662557E-01
  4.651779E-01
  4.688577E-01
  4.677456E-01
  4.661773E-01
  4.643276E-01
  4.669092E-01
  4.651193E-01
  4.651480E-01
  4.666391E-01
  4.717578E-01
  4.707307E-01
  4.691435E-01
  4.660338E-01
  4.675908E-01
  4.679625E-01
  4.684983E-01
  4.635556E-01
  4.618355E-01
  4.608980E-01
  4.629881E-01
  4.628610E-01
  4.675389E-01
  4.718052E-01
  4.763616E-01
  4.738110E-01
  4.700684E-01
  4.641625E-01
  4.631560E-01
  4.612593E-01
  4.618226E-01
  4.618002E-01
  4.672272E-01
  4.708957E-01
  4.771308E-01
  4.722774E-01
  4.683515E-01
  4.635646E-01
  4.653246E-01
  4.656679E-01
  4.693557E-01
  4.694674E-01
  4.708503E-01
  4.669858E-01
  4.664924E-01
  4.643016E-01
  4.648756E-01
  4.628047E-01
  4.680517E-01
  4.733961E-01
  4.781356E-01
  4.727167E-01
  4.690756E-01
  4.678977E-01
  4.740273E-01
  4.736991E-01
  4.703349E-01
  4.632061E-01
  4.629719E-01
  4.605342E-01
  4.601098E-01
  4.599614E-01
  4.665679E-01
  4.656598E-01
  4.617335E-01
  4.575898E-01
  4.633548E-01
  4.670401E-01
  4.713524E-01
  4.714627E-01
  4.724904E-01
  4.667931E-01
  4.644408E-01
  4.627084E-01
  4.657588E-01
  4.647916E-01
  4.662664E-01
  4.650252E-01
  4.684263E-01
  4.692742E-01
  4.696902E-01
  4.632180E-01
  4.619666E-01
  4.622562E-01
  4.663327E-01
  4.658999E-01
  4.694903E-01
  4.711799E-01
  4.736832E-01
  4.688775E-01
  4.656583E-01
  4.611992E-01
  4.615873E-01
  4.585452E-01
  4.589362E-01
  4.598327E-01
  4.679921E-01
  4.732476E-01
  4.816793E-01
  4.755018E-01
  4.699400E-01
  4.670192E-01
  4.672202E-01
  4.656165E-01
  4.635121E-01
  4.630316E-01
  4.660790E-01
  4.673327E-01
  4.670550E-01
  4.656451E-01
  4.646095E-01
  4.626234E-01
  4.643875E-01
  4.694702E-01
  4.743349E-01
  4.731074E-01
  4.700357E-01
  4.687515E-01
  4.705956E-01
  4.696105E-01
  4.658120E-01
  4.620049E-01
  4.626418E-01
  4.632503E-01
  4.635296E-01
  4.652634E-01
  4.692308E-01
  4.679020E-01
  4.634307E-01
  4.625676E-01
  4.689481E-01
  4.740969E-01
  4.745363E-01
  4.712097E-01
  4.686381E-01
  4.655328E-01
  4.647083E-01
  4.658303E-01
  4.669508E-01
  4.641685E-01
  4.633798E-01
  4.671973E-01
  4.736340E-01
  4.745141E-01
  4.691719E-01
  4.611798E-01
  4.594089E-01
  4.636342E-01
  4.690824E-01
  4.693859E-01
  4.686827E-01
  4.696103E-01
  4.715635E-01
  4.687419E-01
  4.640917E-01
  4.609957E-01
  4.615622E-01
  4.613756E-01
  4.621629E-01
  4.663079E-01
  4.753499E-01
  4.816690E-01
  4.754286E-01
  4.735081E-01
  4.690615E-01
  4.669581E-01
  4.662361E-01
  4.658997E-01
  4.635957E-01
  4.631550E-01
  4.641721E-01
  4.665968E-01
  4.674600E-01
  4.668939E-01
  4.625487E-01
  4.590790E-01
  4.595071E-01
  4.645840E-01
  4.679831E-01
  4.684798E-01
  4.655054E-01
  4.634760E-01
  4.635912E-01
  4.664958E-01
  4.668123E-01
  4.653614E-01
  4.636184E-01
  4.635863E-01
  4.629775E-01
  4.654336E-01
  4.688928E-01
  4.692568E-01
  4.648520E-01
  4.644526E-01
  4.690693E-01
  4.746958E-01
  4.751984E-01
  4.725451E-01
  4.678759E-01
  4.653360E-01
  4.645464E-01
  4.654878E-01
  4.646642E-01
  4.642558E-01
  4.650018E-01
  4.689332E-01
  4.722826E-01
  4.728497E-01
  4.676563E-01
  4.618439E-01
  4.593370E-01
  4.627962E-01
  4.666011E-01
  4.682877E-01
  4.673928E-01
  4.679882E-01
  4.669381E-01
  4.640161E-01
  4.616732E-01
  4.650589E-01
  4.691317E-01
  4.700971E-01
  4.671882E-01
  4.667334E-01
  4.693961E-01
  4.741100E-01
  4.725702E-01
  4.693163E-01
  4.686337E-01
  4.667168E-01
  4.682379E-01
  4.659219E-01
  4.644415E-01
  4.611425E-01
  4.627223E-01
  4.624136E-01
  4.641887E-01
  4.633595E-01
  4.648238E-01
  4.627475E-01
  4.627918E-01
  4.605326E-01
  4.616832E-01
  4.613766E-01
  4.634022E-01
  4.611155E-01
  4.619701E-01
  4.639366E-01
  4.703082E-01
  4.718162E-01
  4.726448E-01
  4.688142E-01
  4.679616E-01
  4.674225E-01
  4.709568E-01
  4.697185E-01
  4.698344E-01
  4.700166E-01
  4.749342E-01
  4.744220E-01
  4.711021E-01
  4.634277E-01
  4.621022E-01
  4.625949E-01
  4.668497E-01
  4.677704E-01
  4.695170E-01
  4.664114E-01
  4.667563E-01
  4.683276E-01
  4.727064E-01
  4.694874E-01
  4.653131E-01
  4.598896E-01
  4.601464E-01
  4.602370E-01
  4.637765E-01
  4.635014E-01
  4.652140E-01
  4.663264E-01
  4.703547E-01
  4.686472E-01
  4.686103E-01
  4.691744E-01
  4.742814E-01
  4.746455E-01
  4.743941E-01
  4.708284E-01
  4.718122E-01
  4.715103E-01
  4.668195E-01
  4.654053E-01
  4.690075E-01
  4.646074E-01
  4.670888E-01
  4.647228E-01
  4.695747E-01
  4.652123E-01
  4.644562E-01
  4.580354E-01
  4.624109E-01
  4.624722E-01
  4.680637E-01
  4.663209E-01
  4.712687E-01
  4.670961E-01
  4.666309E-01
  4.603124E-01
  4.623775E-01
  4.577453E-01
  4.616981E-01
  4.640265E-01
  4.739641E-01
  4.720998E-01
  4.722916E-01
  4.657223E-01
  4.684574E-01
  4.675711E-01
  4.733244E-01
  4.684393E-01
  4.679418E-01
  4.640461E-01
  4.702480E-01
  4.683678E-01
  4.694948E-01
  4.632554E-01
  4.661588E-01
  4.642086E-01
  4.675277E-01
  4.627846E-01
  4.660336E-01
  4.645394E-01
  4.694197E-01
  4.662981E-01
  4.683904E-01
  4.627624E-01
  4.646767E-01
  4.619963E-01
  4.655721E-01