# vtk DataFile Version 2.0
title
ASCII
DATASET STRUCTURED_GRID
DIMENSIONS   64   64    1
POINTS   4096  float
  0.000000E+00  0.000000E+00  0.000000E+00
  0.000000E+00  3.906250E-01  0.000000E+00
  0.000000E+00  7.812500E-01  0.000000E+00
  0.000000E+00  1.171875E+00  0.000000E+00
  0.000000E+00  1.562500E+00  0.000000E+00
  0.000000E+00  1.953125E+00  0.000000E+00
  0.000000E+00  2.343750E+00  0.000000E+00
  0.000000E+00  2.734375E+00  0.000000E+00
  0.000000E+00  3.125000E+00  0.000000E+00
  0.000000E+00  3.515625E+00  0.000000E+00
  0.000000E+00  3.906250E+00  0.000000E+00
  0.000000E+00  4.296875E+00  0.000000E+00
  0.000000E+00  4.687500E+00  0.000000E+00
  0.000000E+00  5.078125E+00  0.000000E+00
  0.000000E+00  5.468750E+00  0.000000E+00
  0.000000E+00  5.859375E+00  0.000000E+00
  0.000000E+00  6.250000E+00  0.000000E+00
  0.000000E+00  6.640625E+00  0.000000E+00
  0.000000E+00  7.031250E+00  0.000000E+00
  0.000000E+00  7.421875E+00  0.000000E+00
  0.000000E+00  7.812500E+00  0.000000E+00
  0.000000E+00  8.203125E+00  0.000000E+00
  0.000000E+00  8.593750E+00  0.000000E+00
  0.000000E+00  8.984375E+00  0.000000E+00
  0.000000E+00  9.375000E+00  0.000000E+00
  0.000000E+00  9.765625E+00  0.000000E+00
  0.000000E+00  1.015625E+01  0.000000E+00
  0.000000E+00  1.054688E+01  0.000000E+00
  0.000000E+00  1.093750E+01  0.000000E+00
  0.000000E+00  1.132812E+01  0.000000E+00
  0.000000E+00  1.171875E+01  0.000000E+00
  0.000000E+00  1.210938E+01  0.000000E+00
  0.000000E+00  1.250000E+01  0.000000E+00
  0.000000E+00  1.289062E+01  0.000000E+00
  0.000000E+00  1.328125E+01  0.000000E+00
  0.000000E+00  1.367188E+01  0.000000E+00
  0.000000E+00  1.406250E+01  0.000000E+00
  0.000000E+00  1.445312E+01  0.000000E+00
  0.000000E+00  1.484375E+01  0.000000E+00
  0.000000E+00  1.523438E+01  0.000000E+00
  0.000000E+00  1.562500E+01  0.000000E+00
  0.000000E+00  1.601562E+01  0.000000E+00
  0.000000E+00  1.640625E+01  0.000000E+00
  0.000000E+00  1.679688E+01  0.000000E+00
  0.000000E+00  1.718750E+01  0.000000E+00
  0.000000E+00  1.757812E+01  0.000000E+00
  0.000000E+00  1.796875E+01  0.000000E+00
  0.000000E+00  1.835938E+01  0.000000E+00
  0.000000E+00  1.875000E+01  0.000000E+00
  0.000000E+00  1.914062E+01  0.000000E+00
  0.000000E+00  1.953125E+01  0.000000E+00
  0.000000E+00  1.992188E+01  0.000000E+00
  0.000000E+00  2.031250E+01  0.000000E+00
  0.000000E+00  2.070312E+01  0.000000E+00
  0.000000E+00  2.109375E+01  0.000000E+00
  0.000000E+00  2.148438E+01  0.000000E+00
  0.000000E+00  2.187500E+01  0.000000E+00
  0.000000E+00  2.226562E+01  0.000000E+00
  0.000000E+00  2.265625E+01  0.000000E+00
  0.000000E+00  2.304688E+01  0.000000E+00
  0.000000E+00  2.343750E+01  0.000000E+00
  0.000000E+00  2.382812E+01  0.000000E+00
  0.000000E+00  2.421875E+01  0.000000E+00
  0.000000E+00  2.460938E+01  0.000000E+00
  3.906250E-01  0.000000E+00  0.000000E+00
  3.906250E-01  3.906250E-01  0.000000E+00
  3.906250E-01  7.812500E-01  0.000000E+00
  3.906250E-01  1.171875E+00  0.000000E+00
  3.906250E-01  1.562500E+00  0.000000E+00
  3.906250E-01  1.953125E+00  0.000000E+00
  3.906250E-01  2.343750E+00  0.000000E+00
  3.906250E-01  2.734375E+00  0.000000E+00
  3.906250E-01  3.125000E+00  0.000000E+00
  3.906250E-01  3.515625E+00  0.000000E+00
  3.906250E-01  3.906250E+00  0.000000E+00
  3.906250E-01  4.296875E+00  0.000000E+00
  3.906250E-01  4.687500E+00  0.000000E+00
  3.906250E-01  5.078125E+00  0.000000E+00
  3.906250E-01  5.468750E+00  0.000000E+00
  3.906250E-01  5.859375E+00  0.000000E+00
  3.906250E-01  6.250000E+00  0.000000E+00
  3.906250E-01  6.640625E+00  0.000000E+00
  3.906250E-01  7.031250E+00  0.000000E+00
  3.906250E-01  7.421875E+00  0.000000E+00
  3.906250E-01  7.812500E+00  0.000000E+00
  3.906250E-01  8.203125E+00  0.000000E+00
  3.906250E-01  8.593750E+00  0.000000E+00
  3.906250E-01  8.984375E+00  0.000000E+00
  3.906250E-01  9.375000E+00  0.000000E+00
  3.906250E-01  9.765625E+00  0.000000E+00
  3.906250E-01  1.015625E+01  0.000000E+00
  3.906250E-01  1.054688E+01  0.000000E+00
  3.906250E-01  1.093750E+01  0.000000E+00
  3.906250E-01  1.132812E+01  0.000000E+00
  3.906250E-01  1.171875E+01  0.000000E+00
  3.906250E-01  1.210938E+01  0.000000E+00
  3.906250E-01  1.250000E+01  0.000000E+00
  3.906250E-01  1.289062E+01  0.000000E+00
  3.906250E-01  1.328125E+01  0.000000E+00
  3.906250E-01  1.367188E+01  0.000000E+00
  3.906250E-01  1.406250E+01  0.000000E+00
  3.906250E-01  1.445312E+01  0.000000E+00
  3.906250E-01  1.484375E+01  0.000000E+00
  3.906250E-01  1.523438E+01  0.000000E+00
  3.906250E-01  1.562500E+01  0.000000E+00
  3.906250E-01  1.601562E+01  0.000000E+00
  3.906250E-01  1.640625E+01  0.000000E+00
  3.906250E-01  1.679688E+01  0.000000E+00
  3.906250E-01  1.718750E+01  0.000000E+00
  3.906250E-01  1.757812E+01  0.000000E+00
  3.906250E-01  1.796875E+01  0.000000E+00
  3.906250E-01  1.835938E+01  0.000000E+00
  3.906250E-01  1.875000E+01  0.000000E+00
  3.906250E-01  1.914062E+01  0.000000E+00
  3.906250E-01  1.953125E+01  0.000000E+00
  3.906250E-01  1.992188E+01  0.000000E+00
  3.906250E-01  2.031250E+01  0.000000E+00
  3.906250E-01  2.070312E+01  0.000000E+00
  3.906250E-01  2.109375E+01  0.000000E+00
  3.906250E-01  2.148438E+01  0.000000E+00
  3.906250E-01  2.187500E+01  0.000000E+00
  3.906250E-01  2.226562E+01  0.000000E+00
  3.906250E-01  2.265625E+01  0.000000E+00
  3.906250E-01  2.304688E+01  0.000000E+00
  3.906250E-01  2.343750E+01  0.000000E+00
  3.906250E-01  2.382812E+01  0.000000E+00
  3.906250E-01  2.421875E+01  0.000000E+00
  3.906250E-01  2.460938E+01  0.000000E+00
  7.812500E-01  0.000000E+00  0.000000E+00
  7.812500E-01  3.906250E-01  0.000000E+00
  7.812500E-01  7.812500E-01  0.000000E+00
  7.812500E-01  1.171875E+00  0.000000E+00
  7.812500E-01  1.562500E+00  0.000000E+00
  7.812500E-01  1.953125E+00  0.000000E+00
  7.812500E-01  2.343750E+00  0.000000E+00
  7.812500E-01  2.734375E+00  0.000000E+00
  7.812500E-01  3.125000E+00  0.000000E+00
  7.812500E-01  3.515625E+00  0.000000E+00
  7.812500E-01  3.906250E+00  0.000000E+00
  7.812500E-01  4.296875E+00  0.000000E+00
  7.812500E-01  4.687500E+00  0.000000E+00
  7.812500E-01  5.078125E+00  0.000000E+00
  7.812500E-01  5.468750E+00  0.000000E+00
  7.812500E-01  5.859375E+00  0.000000E+00
  7.812500E-01  6.250000E+00  0.000000E+00
  7.812500E-01  6.640625E+00  0.000000E+00
  7.812500E-01  7.031250E+00  0.000000E+00
  7.812500E-01  7.421875E+00  0.000000E+00
  7.812500E-01  7.812500E+00  0.000000E+00
  7.812500E-01  8.203125E+00  0.000000E+00
  7.812500E-01  8.593750E+00  0.000000E+00
  7.812500E-01  8.984375E+00  0.000000E+00
  7.812500E-01  9.375000E+00  0.000000E+00
  7.812500E-01  9.765625E+00  0.000000E+00
  7.812500E-01  1.015625E+01  0.000000E+00
  7.812500E-01  1.054688E+01  0.000000E+00
  7.812500E-01  1.093750E+01  0.000000E+00
  7.812500E-01  1.132812E+01  0.000000E+00
  7.812500E-01  1.171875E+01  0.000000E+00
  7.812500E-01  1.210938E+01  0.000000E+00
  7.812500E-01  1.250000E+01  0.000000E+00
  7.812500E-01  1.289062E+01  0.000000E+00
  7.812500E-01  1.328125E+01  0.000000E+00
  7.812500E-01  1.367188E+01  0.000000E+00
  7.812500E-01  1.406250E+01  0.000000E+00
  7.812500E-01  1.445312E+01  0.000000E+00
  7.812500E-01  1.484375E+01  0.000000E+00
  7.812500E-01  1.523438E+01  0.000000E+00
  7.812500E-01  1.562500E+01  0.000000E+00
  7.812500E-01  1.601562E+01  0.000000E+00
  7.812500E-01  1.640625E+01  0.000000E+00
  7.812500E-01  1.679688E+01  0.000000E+00
  7.812500E-01  1.718750E+01  0.000000E+00
  7.812500E-01  1.757812E+01  0.000000E+00
  7.812500E-01  1.796875E+01  0.000000E+00
  7.812500E-01  1.835938E+01  0.000000E+00
  7.812500E-01  1.875000E+01  0.000000E+00
  7.812500E-01  1.914062E+01  0.000000E+00
  7.812500E-01  1.953125E+01  0.000000E+00
  7.812500E-01  1.992188E+01  0.000000E+00
  7.812500E-01  2.031250E+01  0.000000E+00
  7.812500E-01  2.070312E+01  0.000000E+00
  7.812500E-01  2.109375E+01  0.000000E+00
  7.812500E-01  2.148438E+01  0.000000E+00
  7.812500E-01  2.187500E+01  0.000000E+00
  7.812500E-01  2.226562E+01  0.000000E+00
  7.812500E-01  2.265625E+01  0.000000E+00
  7.812500E-01  2.304688E+01  0.000000E+00
  7.812500E-01  2.343750E+01  0.000000E+00
  7.812500E-01  2.382812E+01  0.000000E+00
  7.812500E-01  2.421875E+01  0.000000E+00
  7.812500E-01  2.460938E+01  0.000000E+00
  1.171875E+00  0.000000E+00  0.000000E+00
  1.171875E+00  3.906250E-01  0.000000E+00
  1.171875E+00  7.812500E-01  0.000000E+00
  1.171875E+00  1.171875E+00  0.000000E+00
  1.171875E+00  1.562500E+00  0.000000E+00
  1.171875E+00  1.953125E+00  0.000000E+00
  1.171875E+00  2.343750E+00  0.000000E+00
  1.171875E+00  2.734375E+00  0.000000E+00
  1.171875E+00  3.125000E+00  0.000000E+00
  1.171875E+00  3.515625E+00  0.000000E+00
  1.171875E+00  3.906250E+00  0.000000E+00
  1.171875E+00  4.296875E+00  0.000000E+00
  1.171875E+00  4.687500E+00  0.000000E+00
  1.171875E+00  5.078125E+00  0.000000E+00
  1.171875E+00  5.468750E+00  0.000000E+00
  1.171875E+00  5.859375E+00  0.000000E+00
  1.171875E+00  6.250000E+00  0.000000E+00
  1.171875E+00  6.640625E+00  0.000000E+00
  1.171875E+00  7.031250E+00  0.000000E+00
  1.171875E+00  7.421875E+00  0.000000E+00
  1.171875E+00  7.812500E+00  0.000000E+00
  1.171875E+00  8.203125E+00  0.000000E+00
  1.171875E+00  8.593750E+00  0.000000E+00
  1.171875E+00  8.984375E+00  0.000000E+00
  1.171875E+00  9.375000E+00  0.000000E+00
  1.171875E+00  9.765625E+00  0.000000E+00
  1.171875E+00  1.015625E+01  0.000000E+00
  1.171875E+00  1.054688E+01  0.000000E+00
  1.171875E+00  1.093750E+01  0.000000E+00
  1.171875E+00  1.132812E+01  0.000000E+00
  1.171875E+00  1.171875E+01  0.000000E+00
  1.171875E+00  1.210938E+01  0.000000E+00
  1.171875E+00  1.250000E+01  0.000000E+00
  1.171875E+00  1.289062E+01  0.000000E+00
  1.171875E+00  1.328125E+01  0.000000E+00
  1.171875E+00  1.367188E+01  0.000000E+00
  1.171875E+00  1.406250E+01  0.000000E+00
  1.171875E+00  1.445312E+01  0.000000E+00
[...]
POINT_DATA   4096
SCALARS CON  float  1
LOOKUP_TABLE default
  4.714919E-01
  4.730250E-01
  4.804891E-01
  4.763151E-01
  4.765893E-01
  4.685965E-01
  4.708517E-01
  4.687582E-01
  4.759342E-01
  4.739175E-01
  4.764499E-01
  4.686305E-01
  4.683981E-01
  4.626901E-01
  4.678653E-01
  4.676391E-01
  4.753703E-01
  4.734982E-01
  4.766654E-01
  4.699498E-01
  4.703557E-01
  4.635049E-01
  4.649912E-01
  4.590433E-01
  4.611558E-01
  4.569591E-01
  4.629591E-01
  4.638340E-01
  4.732005E-01
  4.728643E-01
  4.767267E-01
  4.701254E-01
  4.713038E-01
  4.669894E-01
  4.726324E-01
  4.706803E-01
  4.743773E-01
  4.677186E-01
  4.676336E-01
  4.605987E-01
  4.629087E-01
  4.586065E-01
  4.619045E-01
  4.568730E-01
  4.596428E-01
  4.566729E-01
  4.648498E-01
  4.685916E-01
  4.804674E-01
  4.805175E-01
  4.814980E-01
  4.691517E-01
  4.641886E-01
  4.567797E-01
  4.649653E-01
  4.717860E-01
  4.873324E-01
  4.899809E-01
  4.926480E-01
  4.814056E-01
  4.761896E-01
  4.652411E-01
  4.659753E-01
  4.632602E-01
  4.721541E-01
  4.754272E-01
  4.843528E-01
  4.826858E-01
  4.819546E-01
  4.716405E-01
  4.687524E-01
  4.636332E-01
  4.690460E-01
  4.699947E-01
  4.762989E-01
  4.735041E-01
  4.745246E-01
  4.680946E-01
  4.687721E-01
  4.652177E-01
  4.702639E-01
  4.699383E-01
  4.748989E-01
  4.709437E-01
  4.710997E-01
  4.643807E-01
  4.652741E-01
  4.616948E-01
  4.655726E-01
  4.632639E-01
  4.671507E-01
  4.651275E-01
  4.703862E-01
  4.699025E-01
  4.752450E-01
  4.725195E-01
  4.741864E-01
  4.681997E-01
  4.684800E-01
  4.634089E-01
  4.661450E-01
  4.636566E-01
  4.675973E-01
  4.641086E-01
  4.652691E-01
  4.587995E-01
  4.584449E-01
  4.528094E-01
  4.554278E-01
  4.545173E-01
  4.630731E-01
  4.678132E-01
  4.787231E-01
  4.791121E-01
  4.794942E-01
  4.689390E-01
  4.656256E-01
  4.621246E-01
  4.725677E-01
  4.809412E-01
  4.935315E-01
  4.922407E-01
  4.896858E-01
  4.771063E-01
  4.720900E-01
  4.641674E-01
  4.660005E-01
  4.644959E-01
  4.637284E-01
  4.744879E-01
  4.849717E-01
  4.864445E-01
  4.822965E-01
  4.722304E-01
  4.658234E-01
  4.623753E-01
  4.658601E-01
  4.696183E-01
  4.746311E-01
  4.748525E-01
  4.743471E-01
  4.704526E-01
  4.690707E-01
  4.672495E-01
  4.690711E-01
  4.695579E-01
  4.716759E-01
  4.706504E-01
  4.706678E-01
  4.682026E-01
  4.678007E-01
  4.654865E-01
  4.653255E-01
  4.634675E-01
  4.643825E-01
  4.641146E-01
  4.661876E-01
  4.655738E-01
  4.658611E-01
  4.634919E-01
  4.637869E-01
  4.635622E-01
  4.666239E-01
  4.675792E-01
  4.691932E-01
  4.670242E-01
  4.657617E-01
  4.620767E-01
  4.603560E-01
  4.565416E-01
  4.548970E-01
  4.520831E-01
  4.532209E-01
  4.552414E-01
  4.623457E-01
  4.692565E-01
  4.772937E-01
  4.791496E-01
  4.774580E-01
  4.698835E-01
  4.649162E-01
  4.628542E-01
  4.695605E-01
  4.788947E-01
  4.896456E-01
  4.921285E-01
  4.883264E-01
  4.763523E-01
  4.650139E-01
  4.545586E-01
  4.517952E-01
  4.537599E-01
  4.636779E-01
  4.753343E-01
  4.823027E-01
  4.866945E-01
  4.793399E-01
  4.703503E-01
  4.584946E-01
  4.554780E-01
  4.556952E-01
  4.641951E-01
  4.702828E-01
  4.772802E-01
  4.761372E-01
  4.744750E-01
  4.677341E-01
  4.659982E-01
  4.641311E-01
  4.688488E-01
  4.709249E-01
  4.748573E-01
  4.725315E-01
  4.720402E-01
  4.682224E-01
  4.691816E-01
  4.673702E-01
  4.685412E-01
  4.650231E-01
  4.645390E-01
  4.615540E-01
  4.640097E-01
  4.644117E-01
  4.680773E-01
  4.663333E-01
  4.658978E-01
  4.610938E-01
  4.610468E-01
  4.601364E-01
  4.649135E-01
  4.662511E-01
  4.688043E-01
  4.646534E-01
  4.621350E-01
  4.567236E-01
  4.573323E-01
  4.573645E-01
  4.629294E-01
  4.658221E-01
  4.719865E-01
  4.731286E-01
  4.749487E-01
  4.699465E-01
  4.668437E-01
  4.620064E-01
  4.654250E-01
  4.704075E-01
  4.808014E-01
  4.845313E-01
  4.852580E-01
  4.764406E-01
  4.688898E-01
  4.592987E-01
  4.564662E-01
  4.537582E-01
  4.583827E-01
  4.591589E-01
  4.738218E-01
  4.780475E-01
  4.836129E-01
  4.732666E-01
  4.671154E-01
  4.544225E-01
  4.550334E-01
  4.534667E-01
  4.636563E-01
  4.662967E-01
  4.746568E-01
  4.711652E-01
  4.729180E-01
  4.657799E-01
  4.680927E-01
  4.646527E-01
  4.712291E-01
  4.702551E-01
  4.764570E-01
  4.726357E-01
  4.751607E-01
  4.683935E-01
  4.693501E-01
  4.623890E-01
  4.641197E-01
  4.586959E-01
  4.623798E-01
  4.588691E-01
  4.638148E-01
  4.605698E-01
  4.650147E-01
  4.610809E-01
  4.653853E-01
  4.621446E-01
  4.675317E-01
  4.649355E-01
  4.699029E-01
  4.656633E-01
  4.681907E-01
  4.616349E-01
  4.632960E-01
  4.583494E-01
  4.636885E-01
  4.628837E-01
  4.708357E-01
  4.698635E-01
  4.753228E-01
  4.706868E-01
  4.723902E-01
  4.646225E-01
  4.646338E-01
  4.578922E-01
  4.621201E-01
  4.617967E-01
  4.718181E-01
  4.731575E-01
  4.791845E-01
  4.722849E-01
  4.697452E-01
  4.577370E-01
  4.551979E-01
  4.484890E-01
  4.551798E-01
  4.646291E-01
  4.741181E-01
  4.738808E-01
  4.791463E-01
  4.692574E-01
  4.648948E-01
  4.517071E-01
  4.521131E-01
  4.491959E-01
  4.601148E-01
  4.632549E-01
  4.736401E-01
  4.703352E-01
  4.724123E-01
  4.636791E-01
  4.660424E-01
  4.628938E-01
  4.724134E-01
  4.732636E-01
  4.809870E-01
  4.751933E-01
  4.757102E-01
  4.661996E-01
  4.673225E-01
  4.607265E-01
  4.641505E-01
  4.583138E-01
  4.621866E-01
  4.584455E-01
  4.663974E-01
  4.665248E-01
  4.749852E-01
  4.706467E-01
  4.719351E-01
  4.624167E-01
  4.641203E-01
  4.604397E-01
  4.691449E-01
  4.685320E-01
  4.743736E-01
  4.674833E-01
  4.689404E-01
  4.632543E-01
  4.704501E-01
  4.704707E-01
  4.789301E-01
  4.747032E-01
  4.765256E-01
  4.672237E-01
  4.672295E-01
  4.587676E-01
  4.609593E-01
  4.559012E-01
  4.625741E-01
  4.618268E-01
  4.703076E-01
  4.672287E-01
  4.706385E-01
  4.631625E-01
  4.655302E-01
  4.600548E-01
  4.648553E-01
  4.606472E-01
  4.663789E-01
  4.631505E-01
  4.707963E-01
  4.706265E-01
  4.745055E-01
  4.672643E-01
  4.650098E-01
  4.564111E-01
  4.579878E-01
  4.560845E-01
  4.636525E-01
  4.643251E-01
  4.703494E-01
  4.665922E-01
  4.683387E-01
  4.632744E-01
  4.674708E-01
  4.671295E-01
  4.754830E-01
  4.761294E-01
  4.814483E-01
  4.760488E-01
  4.749525E-01
  4.653193E-01
  4.632392E-01
  4.557525E-01
  4.577252E-01
  4.549463E-01
  4.610756E-01
  4.611098E-01
  4.684051E-01
  4.678522E-01
  4.731584E-01
  4.698491E-01
  4.729294E-01
  4.690609E-01
  4.732210E-01
  4.707654E-01
  4.749744E-01
  4.704748E-01
  4.715245E-01
  4.649285E-01
  4.669342E-01
  4.646687E-01
  4.722419E-01
  4.734164E-01
  4.798912E-01
  4.755833E-01
  4.753821E-01
  4.668398E-01
  4.662001E-01
  4.598895E-01
  4.618942E-01
  4.575299E-01
  4.609273E-01
  4.580395E-01
  4.630943E-01
  4.614685E-01
  4.668758E-01
  4.645024E-01
  4.682994E-01
  4.638435E-01
  4.657502E-01
  4.606957E-01
  4.643047E-01
  4.672497E-01
  4.680962E-01
  4.679445E-01
  4.709550E-01
  4.691301E-01
  4.677834E-01
  4.625160E-01
  4.615104E-01
  4.605259E-01
  4.651855E-01
  4.678033E-01
  4.717951E-01
  4.698396E-01
  4.684253E-01
  4.640752E-01
  4.653669E-01
  4.677515E-01
  4.758218E-01
  4.802917E-01
  4.835340E-01
  4.783627E-01
  4.725646E-01
  4.637318E-01
  4.605017E-01
  4.577350E-01
  4.601801E-01
  4.605653E-01
  4.640897E-01
  4.654127E-01
  4.709893E-01
  4.744141E-01
  4.795985E-01
  4.786072E-01
  4.771413E-01
  4.714442E-01
  4.703898E-01
  4.695956E-01
  4.737375E-01
  4.740819E-01
  4.744697E-01
  4.695807E-01
  4.680366E-01
  4.665910E-01
  4.713800E-01
  4.741883E-01
  4.777182E-01
  4.745724E-01
  4.718383E-01
  4.660747E-01
  4.648099E-01
  4.623048E-01
  4.637612E-01
  4.629659E-01
  4.656373E-01
  4.654318E-01
  4.671574E-01
  4.643490E-01
  4.636920E-01
  4.613174E-01
  4.644949E-01
  4.667820E-01
  4.716662E-01
  4.711140E-01
  4.709273E-01
  4.614335E-01
  4.623416E-01
  4.654127E-01
  4.684291E-01
  4.709923E-01
  4.715654E-01
  4.715270E-01
  4.709253E-01
  4.714805E-01
  4.721595E-01
  4.730068E-01
  4.720075E-01
  4.698883E-01
  4.668260E-01
  4.656699E-01
  4.668895E-01
  4.713681E-01
  4.764766E-01
  4.806052E-01
  4.806734E-01
  4.771307E-01
  4.704146E-01
  4.638837E-01
  4.588593E-01
  4.576100E-01
  4.592217E-01
  4.634409E-01
  4.674842E-01
  4.707851E-01
  4.718762E-01
  4.721760E-01
  4.716378E-01
  4.720364E-01
  4.729555E-01
  4.753381E-01
  4.774483E-01
  4.788225E-01
  4.772675E-01
  4.736206E-01
  4.682653E-01
  4.642906E-01
  4.624876E-01
  4.641303E-01
  4.670538E-01
  4.701909E-01
  4.710516E-01
  4.704773E-01
  4.687542E-01
  4.682178E-01
  4.683296E-01
  4.693312E-01
  4.692881E-01
  4.688118E-01
  4.674017E-01
  4.666902E-01
  4.660809E-01
  4.664862E-01
  4.667917E-01
  4.677629E-01
  4.681144E-01
  4.682441E-01
  4.667306E-01
  4.646741E-01
  4.621449E-01
  4.617742E-01
  4.597087E-01
  4.628981E-01
  4.671665E-01
  4.728520E-01
  4.745969E-01
  4.750780E-01
  4.727842E-01
  4.727904E-01
  4.729140E-01
  4.752920E-01
  4.749517E-01
  4.736374E-01
  4.688406E-01
  4.658934E-01
  4.643647E-01
  4.684288E-01
  4.736434E-01
  4.795753E-01
  4.797280E-01
  4.762111E-01
  4.682329E-01
  4.627344E-01
  4.596752E-01
  4.626298E-01
  4.667687E-01
  4.722982E-01
  4.741081E-01
  4.750895E-01
  4.735544E-01
  4.739003E-01
  4.732133E-01
  4.737586E-01
  4.720214E-01
  4.716469E-01
  4.706421E-01
  4.722912E-01
  4.724203E-01
  4.724875E-01
  4.689191E-01
  4.659810E-01
  4.627119E-01
  4.634303E-01
  4.645982E-01
  4.674623E-01
  4.675385E-01
  4.680059E-01
  4.671692E-01
  4.690517E-01
  4.701676E-01
  4.722500E-01
  4.715930E-01
  4.719706E-01
  4.715248E-01
  4.734505E-01
  4.734445E-01
  4.732134E-01
  4.698884E-01
  4.683059E-01
  4.671202E-01
  4.692254E-01
  4.695711E-01
  4.691517E-01
  4.648244E-01
  4.554325E-01
  4.569110E-01
  4.609670E-01
  4.665322E-01
  4.718141E-01
  4.753721E-01
  4.765698E-01
  4.761892E-01
  4.753744E-01
  4.749472E-01
  4.744951E-01
  4.731724E-01
  4.704202E-01
  4.671079E-01
  4.648268E-01
  4.650758E-01
  4.678880E-01
  4.720152E-01
  4.751925E-01
  4.756249E-01
  4.727052E-01
  4.677342E-01
  4.629198E-01
  4.606623E-01
  4.621898E-01
  4.671997E-01
  4.733653E-01
  4.776675E-01
  4.778285E-01
  4.740738E-01
  4.685632E-01
  4.642901E-01
  4.631471E-01
  4.655111E-01
  4.699011E-01
  4.739419E-01
  4.751772E-01
  4.727711E-01
  4.677302E-01
  4.625631E-01
  4.594033E-01
  4.591296E-01
  4.608130E-01
  4.629336E-01
  4.642596E-01
  4.649619E-01
  4.659572E-01
  4.681866E-01
  4.712698E-01
  4.738758E-01
  4.744283E-01
  4.727718E-01
  4.701186E-01
  4.684780E-01
  4.689493E-01
  4.713829E-01
  4.743388E-01
  4.763721E-01
  4.764218E-01
  4.743910E-01
  4.705396E-01
  4.656628E-01
  4.606738E-01
  4.569099E-01
  4.584707E-01
  4.586273E-01
  4.602041E-01
  4.665302E-01
  4.705269E-01
  4.742097E-01
  4.724476E-01
  4.712149E-01
  4.683279E-01
  4.695886E-01
  4.699576E-01
  4.720212E-01
  4.696723E-01
  4.674321E-01
  4.626741E-01
  4.623122E-01
  4.632842E-01
  4.692508E-01
  4.729959E-01
  4.759433E-01
  4.723436E-01
  4.682239E-01
  4.624054E-01
  4.622994E-01
  4.643527E-01
  4.714576E-01
  4.760728E-01
  4.798888E-01
  4.775593E-01
  4.749889E-01
  4.699170E-01
  4.682327E-01
  4.655348E-01
  4.657679E-01
  4.642398E-01
  4.655345E-01
  4.651114E-01
  4.668195E-01
  4.654221E-01
  4.652271E-01
  4.625084E-01
  4.628078E-01
  4.622034E-01
  4.647021E-01
  4.649484E-01
  4.670169E-01
  4.669073E-01
  4.696765E-01
  4.705125E-01
  4.725567E-01
  4.702348E-01
  4.686019E-01
  4.653533E-01
  4.670454E-01
  4.694538E-01
  4.751189E-01
  4.769766E-01
  4.783007E-01
  4.753971E-01
  4.744082E-01
  4.715691E-01
  4.707135E-01
  4.663897E-01
  4.632372E-01
  4.565705E-01
  4.598405E-01
  4.611373E-01
  4.665795E-01
  4.682118E-01
  4.719425E-01
  4.703293E-01
  4.708210E-01
  4.675310E-01
  4.682357E-01
  4.659759E-01
  4.670482E-01
  4.640351E-01
  4.642246E-01
  4.616885E-01
  4.642166E-01
  4.649890E-01
  4.701939E-01
  4.716274E-01
  4.749163E-01
  4.721900E-01
  4.705509E-01
  4.643495E-01
  4.626784E-01
  4.606100E-01
  4.656636E-01
  4.694251E-01
  4.757696E-01
  4.749105E-01
  4.732261E-01
  4.657133E-01
  4.625065E-01
  4.590476E-01
  4.626230E-01
  4.647349E-01
  4.697620E-01
  4.687484E-01
  4.683619E-01
  4.631063E-01
  4.619997E-01
  4.594592E-01
  4.623478E-01
  4.626577E-01
  4.661338E-01
  4.654283E-01
  4.679334E-01
  4.673576E-01
  4.706802E-01
  4.700910E-01
  4.714038E-01
  4.672244E-01
  4.653970E-01
  4.608055E-01
  4.620904E-01
  4.630191E-01
  4.697746E-01
  4.735739E-01
  4.792488E-01
  4.782844E-01
  4.774036E-01
  4.705833E-01
  4.665103E-01
  4.599144E-01
  4.588010E-01
  4.642629E-01
  4.646226E-01
  4.636833E-01
  4.669998E-01
  4.676860E-01
  4.698708E-01
  4.672916E-01
  4.664001E-01
  4.630678E-01
  4.639819E-01
  4.633375E-01
  4.656514E-01
  4.642228E-01
  4.645949E-01
  4.621400E-01
  4.639243E-01
  4.651856E-01
  4.711166E-01
  4.743139E-01
  4.782194E-01
  4.757186E-01
  4.728517E-01
  4.659694E-01
  4.633026E-01
  4.608881E-01
  4.642814E-01
  4.662753E-01
  4.704399E-01
  4.698741E-01
  4.704698E-01
  4.676852E-01
  4.680338E-01
  4.658509E-01
  4.663030E-01
  4.636395E-01
  4.640321E-01
  4.625280E-01
  4.648810E-01
  4.648198E-01
  4.671636E-01
  4.659997E-01
  4.674201E-01
  4.664210E-01
  4.687941E-01
  4.684340E-01
  4.704165E-01
  4.688638E-01
  4.695247E-01
  4.667582E-01
  4.661070E-01
  4.621586E-01
  4.615545E-01
  4.600584E-01
  4.639983E-01
  4.669545E-01
  4.724906E-01
  4.729396E-01
  4.734533E-01
  4.695755E-01
  4.688306E-01
  4.665899E-01
  4.681568E-01
  4.667498E-01
  4.672317E-01
  4.663596E-01
  4.683028E-01
  4.674231E-01
  4.675265E-01
  4.667914E-01
  4.681757E-01
  4.682235E-01
  4.690198E-01
  4.674683E-01
  4.665863E-01
  4.639982E-01
  4.630348E-01
  4.615010E-01
  4.627772E-01
  4.642407E-01
  4.681977E-01
  4.709228E-01
  4.745276E-01
  4.759838E-01
  4.779714E-01
  4.770009E-01
  4.749877E-01
  4.689430E-01
  4.631277E-01
  4.573115E-01
  4.564237E-01
  4.578756E-01
  4.624821E-01
  4.646172E-01
  4.654655E-01
  4.629113E-01
  4.620217E-01
  4.618976E-01
  4.654827E-01
  4.683708E-01
  4.712626E-01
  4.702179E-01
  4.686069E-01
  4.652542E-01
  4.644759E-01
  4.639906E-01
  4.661523E-01
  4.672688E-01
  4.694077E-01
  4.693880E-01
  4.699517E-01
  4.683180E-01
  4.674237E-01
  4.647416E-01
  4.636038E-01
  4.618161E-01
  4.625749E-01
  4.629895E-01
  4.653397E-01
  4.662151E-01
  4.680235E-01
  4.677308E-01
  4.679266E-01
  4.655956E-01
  4.638118E-01
  4.607578E-01
  4.605544E-01
  4.610677E-01
  4.644579E-01
  4.767177E-01
  4.748642E-01
  4.712919E-01
  4.683582E-01
  4.668988E-01
  4.668137E-01
  4.669895E-01
  4.669656E-01
  4.664207E-01
  4.657577E-01
  4.649693E-01
  4.644007E-01
  4.640832E-01
  4.645768E-01
  4.659622E-01
  4.684314E-01
  4.714407E-01
  4.746551E-01
  4.772399E-01
  4.786658E-01
  4.779453E-01
  4.748527E-01
  4.696386E-01
  4.639653E-01
  4.594096E-01
  4.572748E-01
  4.572766E-01
  4.586774E-01
  4.603365E-01
  4.621932E-01
  4.643308E-01
  4.670198E-01
  4.693562E-01
  4.704411E-01
  4.695701E-01
  4.676836E-01
  4.660700E-01
  4.659515E-01
  4.669007E-01
  4.680833E-01
  4.685726E-01
  4.688161E-01
  4.693487E-01
  4.705654E-01
  4.714243E-01
  4.708891E-01
  4.682502E-01
  4.644914E-01
  4.609908E-01
  4.594093E-01
  4.602526E-01
  4.635271E-01
  4.679679E-01
  4.720310E-01
  4.736140E-01
  4.717324E-01
  4.664857E-01
  4.599833E-01
  4.547379E-01
  4.532307E-01
  4.560764E-01
  4.624650E-01
  4.697119E-01
  4.751390E-01
  4.786342E-01
  4.780693E-01
  4.741170E-01
  4.685835E-01
  4.655627E-01
  4.650417E-01
  4.672748E-01
  4.691713E-01
  4.701785E-01
  4.685168E-01
  4.659657E-01
  4.628657E-01
  4.620038E-01
  4.631542E-01
  4.670198E-01
  4.707262E-01
  4.735410E-01
  4.736995E-01
  4.734118E-01
  4.729866E-01
  4.737693E-01
  4.731148E-01
  4.704510E-01
  4.645882E-01
  4.588183E-01
  4.547397E-01
  4.547630E-01
  4.567195E-01
  4.594684E-01
  4.603325E-01
  4.609191E-01
  4.618744E-01
  4.655713E-01
  4.701638E-01
  4.745486E-01
  4.754050E-01
  4.734187E-01
  4.688706E-01
  4.651375E-01
  4.626928E-01
  4.631113E-01
  4.647115E-01
  4.676520E-01
  4.696549E-01
  4.708123E-01
  4.692805E-01
  4.663610E-01
  4.620654E-01
  4.593599E-01
  4.587241E-01
  4.618323E-01
  4.664834E-01
  4.714763E-01
  4.732348E-01
  4.719033E-01
  4.672367E-01
  4.623718E-01
  4.577726E-01
  4.552402E-01
  4.538931E-01
  4.554606E-01
  4.594948E-01
  4.667484E-01
  4.738142E-01
  4.848073E-01
  4.802664E-01
  4.748740E-01
  4.679249E-01
  4.650930E-01
  4.629439E-01
  4.642416E-01
  4.641302E-01
  4.654845E-01
  4.643510E-01
  4.646370E-01
  4.631809E-01
  4.642435E-01
  4.644076E-01
  4.670193E-01
  4.675808E-01
  4.691116E-01
  4.679438E-01
  4.685171E-01
  4.678693E-01
  4.696505E-01
  4.692694E-01
  4.694322E-01
  4.662949E-01
  4.644687E-01
  4.614277E-01
  4.613817E-01
  4.604357E-01
  4.619490E-01
  4.624356E-01
  4.660744E-01
  4.690778E-01
  4.738540E-01
  4.747961E-01
  4.745471E-01
  4.701446E-01
  4.673695E-01
  4.642158E-01
  4.646082E-01
  4.640207E-01
  4.654821E-01
  4.655288E-01
  4.683105E-01
  4.697035E-01
  4.718125E-01
  4.692997E-01
  4.657922E-01
  4.594549E-01
  4.566515E-01
  4.556296E-01
  4.602690E-01
  4.654751E-01
  4.724712E-01
  4.750757E-01
  4.755634E-01
  4.703679E-01
  4.648153E-01
  4.576046E-01
  4.547604E-01
  4.542134E-01
  4.599853E-01
  4.672512E-01
  4.770767E-01
  4.824777E-01
  4.789322E-01
  4.758587E-01
  4.736399E-01
  4.661456E-01
  4.642545E-01
  4.608987E-01
  4.638124E-01
  4.631682E-01
  4.657886E-01
  4.628547E-01
  4.632222E-01
  4.598943E-01
  4.623365E-01
  4.625506E-01
  4.676891E-01
  4.673948E-01
  4.684769E-01
  4.630930E-01
  4.619358E-01
  4.592542E-01
  4.638847E-01
  4.656730E-01
  4.700462E-01
  4.672590E-01
  4.667620E-01
  4.626670E-01
  4.647408E-01
  4.641101E-01
  4.673574E-01
  4.652393E-01
  4.669001E-01
  4.657705E-01
  4.709250E-01
  4.728365E-01
  4.774480E-01
  4.745656E-01
  4.726118E-01
  4.650421E-01
  4.624559E-01
  4.581722E-01
  4.608774E-01
  4.617352E-01
  4.677138E-01
  4.687907E-01
  4.716741E-01
  4.673006E-01
  4.647791E-01
  4.578305E-01
  4.570225E-01
  4.555568E-01
  4.614710E-01
  4.647167E-01
  4.709799E-01
  4.701217E-01
  4.706311E-01
  4.660328E-01
  4.666256E-01
  4.646472E-01
  4.674541E-01
  4.656965E-01
  4.678929E-01
  4.670465E-01
  4.722917E-01
  4.742887E-01
  4.769491E-01
  4.711535E-01
  4.714457E-01
  4.647979E-01
  4.656889E-01
  4.603084E-01
  4.622973E-01
  4.577273E-01
  4.605307E-01
  4.571323E-01
  4.615142E-01
  4.598598E-01
  4.656616E-01
  4.643618E-01
  4.688195E-01
  4.643621E-01
  4.650231E-01
  4.581729E-01
  4.594234E-01
  4.562397E-01
  4.623796E-01
  4.628299E-01
  4.698032E-01
  4.684521E-01
  4.728293E-01
  4.696465E-01
  4.731475E-01
  4.693229E-01
  4.722380E-01
  4.687516E-01
  4.736336E-01
  4.727651E-01
  4.784305E-01
  4.746272E-01
  4.746410E-01
  4.659446E-01
  4.649895E-01
  4.595443E-01
  4.633003E-01
  4.612730E-01
  4.664904E-01
  4.652288E-01
  4.715277E-01
  4.706299E-01
  4.746789E-01
  4.684329E-01
  4.665020E-01
  4.573952E-01
  4.575062E-01
  4.542618E-01
  4.608322E-01
  4.617749E-01
  4.692270E-01
  4.684093E-01
  4.732788E-01
  4.704704E-01
  4.743981E-01
  4.712774E-01
  4.749857E-01
  4.716023E-01
  4.754009E-01
  4.727018E-01
  4.772301E-01
  4.742642E-01
  4.667454E-01
  4.651972E-01
  4.698604E-01
  4.651290E-01
  4.671952E-01
  4.618870E-01
  4.648119E-01
  4.604516E-01
  4.635441E-01
  4.588492E-01
  4.620537E-01
  4.587607E-01
  4.645691E-01
  4.637995E-01
  4.701568E-01
  4.665420E-01
  4.674706E-01
  4.589470E-01
  4.589457E-01
  4.547408E-01
  4.617852E-01
  4.629580E-01
  4.706692E-01
  4.682429E-01
  4.718071E-01
  4.679477E-01
  4.728640E-01
  4.704456E-01
  4.745173E-01
  4.693281E-01
  4.713421E-01
  4.669227E-01
  4.718698E-01
  4.697981E-01
  4.742396E-01
  4.688168E-01
  4.691854E-01
  4.615316E-01
  4.627215E-01
  4.586930E-01
  4.648451E-01
  4.652894E-01
  4.737086E-01
  4.728491E-01
  4.765460E-01
  4.693593E-01
  4.681523E-01
  4.599172E-01
  4.615894E-01