# vtk DataFile Version 2.0
title
ASCII
DATASET STRUCTURED_GRID
DIMENSIONS   64   64    1
POINTS   4096  float
  0.000000E+00  0.000000E+00  0.000000E+00
  0.000000E+00  3.906250E-01  0.000000E+00
  0.000000E+00  7.812500E-01  0.000000E+00
  0.000000E+00  1.171875E+00  0.000000E+00
  0.000000E+00  1.562500E+00  0.000000E+00
  0.000000E+00  1.953125E+00  0.000000E+00
  0.000000E+00  2.343750E+00  0.000000E+00
  0.000000E+00  2.734375E+00  0.000000E+00
  0.000000E+00  3.125000E+00  0.000000E+00
  0.000000E+00  3.515625E+00  0.000000E+00
  0.000000E+00  3.906250E+00  0.000000E+00
  0.000000E+00  4.296875E+00  0.000000E+00
  0.000000E+00  4.687500E+00  0.000000E+00
  0.000000E+00  5.078125E+00  0.000000E+00
  0.000000E+00  5.468750E+00  0.000000E+00
  0.000000E+00  5.859375E+00  0.000000E+00
  0.000000E+00  6.250000E+00  0.000000E+00
  0.000000E+00  6.640625E+00  0.000000E+00
  0.000000E+00  7.031250E+00  0.000000E+00
  0.000000E+00  7.421875E+00  0.000000E+00
  0.000000E+00  7.812500E+00  0.000000E+00
  0.000000E+00  8.203125E+00  0.000000E+00
  0.000000E+00  8.593750E+00  0.000000E+00
  0.000000E+00  8.984375E+00  0.000000E+00
  0.000000E+00  9.375000E+00  0.000000E+00
  0.000000E+00  9.765625E+00  0.000000E+00
  0.000000E+00  1.015625E+01  0.000000E+00
  0.000000E+00  1.054688E+01  0.000000E+00
  0.000000E+00  1.093750E+01  0.000000E+00
  0.000000E+00  1.132812E+01  0.000000E+00
  0.000000E+00  1.171875E+01  0.000000E+00
  0.000000E+00  1.210938E+01  0.000000E+00
  0.000000E+00  1.250000E+01  0.000000E+00
  0.000000E+00  1.289062E+01  0.000000E+00
  0.000000E+00  1.328125E+01  0.000000E+00
  0.000000E+00  1.367188E+01  0.000000E+00
  0.000000E+00  1.406250E+01  0.000000E+00
  0.000000E+00  1.445312E+01  0.000000E+00
  0.000000E+00  1.484375E+01  0.000000E+00
  0.000000E+00  1.523438E+01  0.000000E+00
  0.000000E+00  1.562500E+01  0.000000E+00
  0.000000E+00  1.601562E+01  0.000000E+00
  0.000000E+00  1.640625E+01  0.000000E+00
  0.000000E+00  1.679688E+01  0.000000E+00
  0.000000E+00  1.718750E+01  0.000000E+00
  0.000000E+00  1.757812E+01  0.000000E+00
  0.000000E+00  1.796875E+01  0.000000E+00
  0.000000E+00  1.835938E+01  0.000000E+00
  0.000000E+00  1.875000E+01  0.000000E+00
  0.000000E+00  1.914062E+01  0.000000E+00
  0.000000E+00  1.953125E+01  0.000000E+00
  0.000000E+00  1.992188E+01  0.000000E+00
  0.000000E+00  2.031250E+01  0.000000E+00
  0.000000E+00  2.070312E+01  0.000000E+00
  0.000000E+00  2.109375E+01  0.000000E+00
  0.000000E+00  2.148438E+01  0.000000E+00
  0.000000E+00  2.187500E+01  0.000000E+00
  0.000000E+00  2.226562E+01  0.000000E+00
  0.000000E+00  2.265625E+01  0.000000E+00
  0.000000E+00  2.304688E+01  0.000000E+00
  0.000000E+00  2.343750E+01  0.000000E+00
  0.000000E+00  2.382812E+01  0.000000E+00
  0.000000E+00  2.421875E+01  0.000000E+00
  0.000000E+00  2.460938E+01  0.000000E+00
  3.906250E-01  0.000000E+00  0.000000E+00
  3.906250E-01  3.906250E-01  0.000000E+00
  3.906250E-01  7.812500E-01  0.000000E+00
  3.906250E-01  1.171875E+00  0.000000E+00
  3.906250E-01  1.562500E+00  0.000000E+00
  3.906250E-01  1.953125E+00  0.000000E+00
  3.906250E-01  2.343750E+00  0.000000E+00
  3.906250E-01  2.734375E+00  0.000000E+00
  3.906250E-01  3.125000E+00  0.000000E+00
  3.906250E-01  3.515625E+00  0.000000E+00
  3.906250E-01  3.906250E+00  0.000000E+00
  3.906250E-01  4.296875E+00  0.000000E+00
  3.906250E-01  4.687500E+00  0.000000E+00
  3.906250E-01  5.078125E+00  0.000000E+00
  3.906250E-01  5.468750E+00  0.000000E+00
  3.906250E-01  5.859375E+00  0.000000E+00
  3.906250E-01  6.250000E+00  0.000000E+00
  3.906250E-01  6.640625E+00  0.000000E+00
  3.906250E-01  7.031250E+00  0.000000E+00
  3.906250E-01  7.421875E+00  0.000000E+00
  3.906250E-01  7.812500E+00  0.000000E+00
  3.906250E-01  8.203125E+00  0.000000E+00
  3.906250E-01  8.593750E+00  0.000000E+00
  3.906250E-01  8.984375E+00  0.000000E+00
  3.906250E-01  9.375000E+00  0.000000E+00
  3.906250E-01  9.765625E+00  0.000000E+00
  3.906250E-01  1.015625E+01  0.000000E+00
  3.906250E-01  1.054688E+01  0.000000E+00
  3.906250E-01  1.093750E+01  0.000000E+00
  3.906250E-01  1.132812E+01  0.000000E+00
  3.906250E-01  1.171875E+01  0.000000E+00
  3.906250E-01  1.210938E+01  0.000000E+00
  3.906250E-01  1.250000E+01  0.000000E+00
  3.906250E-01  1.289062E+01  0.000000E+00
  3.906250E-01  1.328125E+01  0.000000E+00
  3.906250E-01  1.367188E+01  0.000000E+00
  3.906250E-01  1.406250E+01  0.000000E+00
  3.906250E-01  1.445312E+01  0.000000E+00
  3.906250E-01  1.484375E+01  0.000000E+00
  3.906250E-01  1.523438E+01  0.000000E+00
  3.906250E-01  1.562500E+01  0.000000E+00
  3.906250E-01  1.601562E+01  0.000000E+00
  3.906250E-01  1.640625E+01  0.000000E+00
  3.906250E-01  1.679688E+01  0.000000E+00
  3.906250E-01  1.718750E+01  0.000000E+00
  3.906250E-01  1.757812E+01  0.000000E+00
  3.906250E-01  1.796875E+01  0.000000E+00
  3.906250E-01  1.835938E+01  0.000000E+00
  3.906250E-01  1.875000E+01  0.000000E+00
  3.906250E-01  1.914062E+01  0.000000E+00
  3.906250E-01  1.953125E+01  0.000000E+00
  3.906250E-01  1.992188E+01  0.000000E+00
  3.906250E-01  2.031250E+01  0.000000E+00
  3.906250E-01  2.070312E+01  0.000000E+00
  3.906250E-01  2.109375E+01  0.000000E+00
  3.906250E-01  2.148438E+01  0.000000E+00
  3.906250E-01  2.187500E+01  0.000000E+00
  3.906250E-01  2.226562E+01  0.000000E+00
  3.906250E-01  2.265625E+01  0.000000E+00
  3.906250E-01  2.304688E+01  0.000000E+00
  3.906250E-01  2.343750E+01  0.000000E+00
  3.906250E-01  2.382812E+01  0.000000E+00
  3.906250E-01  2.421875E+01  0.000000E+00
  3.906250E-01  2.460938E+01  0.000000E+00
  7.812500E-01  0.000000E+00  0.000000E+00
  7.812500E-01  3.906250E-01  0.000000E+00
  7.812500E-01  7.812500E-01  0.000000E+00
  7.812500E-01  1.171875E+00  0.000000E+00
  7.812500E-01  1.562500E+00  0.000000E+00
  7.812500E-01  1.953125E+00  0.000000E+00
  7.812500E-01  2.343750E+00  0.000000E+00
  7.812500E-01  2.734375E+00  0.000000E+00
  7.812500E-01  3.125000E+00  0.000000E+00
  7.812500E-01  3.515625E+00  0.000000E+00
  7.812500E-01  3.906250E+00  0.000000E+00
  7.812500E-01  4.296875E+00  0.000000E+00
  7.812500E-01  4.687500E+00  0.000000E+00
  7.812500E-01  5.078125E+00  0.000000E+00
  7.812500E-01  5.468750E+00  0.000000E+00
  7.812500E-01  5.859375E+00  0.000000E+00
  7.812500E-01  6.250000E+00  0.000000E+00
  7.812500E-01  6.640625E+00  0.000000E+00
  7.812500E-01  7.031250E+00  0.000000E+00
  7.812500E-01  7.421875E+00  0.000000E+00
  7.812500E-01  7.812500E+00  0.000000E+00
  7.812500E-01  8.203125E+00  0.000000E+00
  7.812500E-01  8.593750E+00  0.000000E+00
  7.812500E-01  8.984375E+00  0.000000E+00
  7.812500E-01  9.375000E+00  0.000000E+00
  7.812500E-01  9.765625E+00  0.000000E+00
  7.812500E-01  1.015625E+01  0.000000E+00
  7.812500E-01  1.054688E+01  0.000000E+00
  7.812500E-01  1.093750E+01  0.000000E+00
  7.812500E-01  1.132812E+01  0.000000E+00
  7.812500E-01  1.171875E+01  0.000000E+00
  7.812500E-01  1.210938E+01  0.000000E+00
  7.812500E-01  1.250000E+01  0.000000E+00
  7.812500E-01  1.289062E+01  0.000000E+00
  7.812500E-01  1.328125E+01  0.000000E+00
  7.812500E-01  1.367188E+01  0.000000E+00
  7.812500E-01  1.406250E+01  0.000000E+00
  7.812500E-01  1.445312E+01  0.000000E+00
  7.812500E-01  1.484375E+01  0.000000E+00
  7.812500E-01  1.523438E+01  0.000000E+00
  7.812500E-01  1.562500E+01  0.000000E+00
  7.812500E-01  1.601562E+01  0.000000E+00
  7.812500E-01  1.640625E+01  0.000000E+00
  7.812500E-01  1.679688E+01  0.000000E+00
  7.812500E-01  1.718750E+01  0.000000E+00
  7.812500E-01  1.757812E+01  0.000000E+00
  7.812500E-01  1.796875E+01  0.000000E+00
  7.812500E-01  1.835938E+01  0.000000E+00
  7.812500E-01  1.875000E+01  0.000000E+00
  7.812500E-01  1.914062E+01  0.000000E+00
  7.812500E-01  1.953125E+01  0.000000E+00
  7.812500E-01  1.992188E+01  0.000000E+00
  7.812500E-01  2.031250E+01  0.000000E+00
  7.812500E-01  2.070312E+01  0.000000E+00
  7.812500E-01  2.109375E+01  0.000000E+00
  7.812500E-01  2.148438E+01  0.000000E+00
  7.812500E-01  2.187500E+01  0.000000E+00
  7.812500E-01  2.226562E+01  0.000000E+00
  7.812500E-01  2.265625E+01  0.000000E+00
  7.812500E-01  2.304688E+01  0.000000E+00
  7.812500E-01  2.343750E+01  0.000000E+00
  7.812500E-01  2.382812E+01  0.000000E+00
  7.812500E-01  2.421875E+01  0.000000E+00
  7.812500E-01  2.460938E+01  0.000000E+00
  1.171875E+00  0.000000E+00  0.000000E+00
  1.171875E+00  3.906250E-01  0.000000E+00
  1.171875E+00  7.812500E-01  0.000000E+00
  1.171875E+00  1.171875E+00  0.000000E+00
  1.171875E+00  1.562500E+00  0.000000E+00
  1.171875E+00  1.953125E+00  0.000000E+00
  1.171875E+00  2.343750E+00  0.000000E+00
  1.171875E+00  2.734375E+00  0.000000E+00
  1.171875E+00  3.125000E+00  0.000000E+00
  1.171875E+00  3.515625E+00  0.000000E+00
  1.171875E+00  3.906250E+00  0.000000E+00
  1.171875E+00  4.296875E+00  0.000000E+00
  1.171875E+00  4.687500E+00  0.000000E+00
  1.171875E+00  5.078125E+00  0.000000E+00
  1.171875E+00  5.468750E+00  0.000000E+00
  1.171875E+00  5.859375E+00  0.000000E+00
  1.171875E+00  6.250000E+00  0.000000E+00
  1.171875E+00  6.640625E+00  0.000000E+00
  1.171875E+00  7.031250E+00  0.000000E+00
  1.171875E+00  7.421875E+00  0.000000E+00
  1.171875E+00  7.812500E+00  0.000000E+00
  1.171875E+00  8.203125E+00  0.000000E+00
  1.171875E+00  8.593750E+00  0.000000E+00
  1.171875E+00  8.984375E+00  0.000000E+00
  1.171875E+00  9.375000E+00  0.000000E+00
  1.171875E+00  9.765625E+00  0.000000E+00
  1.171875E+00  1.015625E+01  0.000000E+00
  1.171875E+00  1.054688E+01  0.000000E+00
  1.171875E+00  1.093750E+01  0.000000E+00
  1.171875E+00  1.132812E+01  0.000000E+00
  1.171875E+00  1.171875E+01  0.000000E+00
  1.171875E+00  1.210938E+01  0.000000E+00
  1.171875E+00  1.250000E+01  0.000000E+00
  1.171875E+00  1.289062E+01  0.000000E+00
  1.171875E+00  1.328125E+01  0.000000E+00
  1.171875E+00  1.367188E+01  0.000000E+00
  1.171875E+00  1.406250E+01  0.000000E+00
  1.171875E+00  1.445312E+01  0.000000E+00
[...]
POINT_DATA   4096
SCALARS CON  float  1
LOOKUP_TABLE default
  4.714586E-01
  4.734382E-01
  4.814593E-01
  4.770443E-01
  4.772512E-01
  4.687623E-01
  4.710723E-01
  4.688276E-01
  4.764053E-01
  4.743834E-01
  4.771509E-01
  4.689164E-01
  4.685565E-01
  4.624136E-01
  4.678001E-01
  4.675891E-01
  4.757694E-01
  4.738038E-01
  4.771266E-01
  4.700723E-01
  4.705310E-01
  4.633058E-01
  4.647843E-01
  4.584386E-01
  4.606738E-01
  4.564012E-01
  4.628960E-01
  4.639149E-01
  4.737498E-01
  4.733263E-01
  4.773850E-01
  4.704948E-01
  4.717675E-01
  4.671541E-01
  4.729675E-01
  4.708543E-01
  4.748087E-01
  4.679005E-01
  4.678169E-01
  4.602749E-01
  4.624990E-01
  4.578071E-01
  4.611987E-01
  4.559029E-01
  4.588689E-01
  4.558715E-01
  4.646755E-01
  4.688372E-01
  4.814842E-01
  4.815295E-01
  4.824458E-01
  4.693131E-01
  4.639854E-01
  4.561121E-01
  4.647058E-01
  4.720404E-01
  4.887837E-01
  4.919861E-01
  4.949302E-01
  4.827592E-01
  4.766308E-01
  4.645233E-01
  4.650608E-01
  4.623880E-01
  4.722932E-01
  4.760411E-01
  4.854784E-01
  4.836428E-01
  4.827965E-01
  4.719396E-01
  4.688632E-01
  4.634191E-01
  4.690933E-01
  4.702356E-01
  4.770695E-01
  4.742308E-01
  4.751874E-01
  4.682252E-01
  4.687981E-01
  4.650565E-01
  4.703599E-01
  4.699449E-01
  4.750259E-01
  4.708225E-01
  4.710605E-01
  4.641330E-01
  4.651178E-01
  4.613088E-01
  4.653052E-01
  4.628917E-01
  4.670652E-01
  4.650638E-01
  4.706778E-01
  4.702490E-01
  4.759394E-01
  4.731274E-01
  4.748172E-01
  4.683479E-01
  4.684297E-01
  4.630107E-01
  4.659398E-01
  4.634521E-01
  4.676381E-01
  4.639074E-01
  4.649895E-01
  4.580749E-01
  4.576052E-01
  4.516459E-01
  4.544373E-01
  4.536775E-01
  4.629428E-01
  4.681411E-01
  4.795908E-01
  4.797770E-01
  4.799335E-01
  4.687765E-01
  4.653828E-01
  4.618256E-01
  4.728775E-01
  4.818499E-01
  4.954186E-01
  4.944203E-01
  4.917933E-01
  4.781785E-01
  4.722395E-01
  4.633700E-01
  4.651377E-01
  4.638248E-01
  4.635858E-01
  4.751681E-01
  4.862208E-01
  4.877081E-01
  4.831727E-01
  4.724912E-01
  4.656164E-01
  4.619437E-01
  4.655778E-01
  4.696762E-01
  4.750859E-01
  4.754411E-01
  4.748270E-01
  4.706344E-01
  4.690512E-01
  4.671211E-01
  4.689553E-01
  4.694095E-01
  4.715280E-01
  4.704953E-01
  4.706005E-01
  4.681797E-01
  4.677903E-01
  4.653557E-01
  4.650932E-01
  4.631640E-01
  4.641698E-01
  4.640348E-01
  4.662852E-01
  4.657355E-01
  4.660366E-01
  4.635533E-01
  4.637235E-01
  4.633324E-01
  4.663509E-01
  4.673464E-01
  4.691207E-01
  4.670133E-01
  4.656828E-01
  4.617138E-01
  4.596987E-01
  4.556340E-01
  4.539207E-01
  4.511138E-01
  4.523982E-01
  4.546582E-01
  4.622007E-01
  4.695752E-01
  4.779722E-01
  4.797977E-01
  4.777757E-01
  4.696939E-01
  4.644058E-01
  4.623292E-01
  4.695072E-01
  4.796557E-01
  4.913442E-01
  4.943122E-01
  4.902851E-01
  4.773557E-01
  4.648816E-01
  4.535399E-01
  4.505275E-01
  4.528241E-01
  4.636814E-01
  4.761082E-01
  4.833082E-01
  4.878331E-01
  4.799332E-01
  4.704627E-01
  4.578368E-01
  4.545597E-01
  4.546440E-01
  4.637235E-01
  4.703125E-01
  4.779152E-01
  4.766434E-01
  4.747810E-01
  4.674873E-01
  4.656661E-01
  4.636551E-01
  4.686499E-01
  4.707521E-01
  4.749817E-01
  4.726211E-01
  4.723194E-01
  4.683169E-01
  4.692999E-01
  4.671794E-01
  4.683340E-01
  4.645684E-01
  4.642140E-01
  4.611807E-01
  4.639545E-01
  4.643875E-01
  4.682502E-01
  4.662168E-01
  4.656266E-01
  4.603973E-01
  4.603998E-01
  4.594941E-01
  4.646808E-01
  4.660712E-01
  4.687823E-01
  4.643459E-01
  4.617709E-01
  4.560404E-01
  4.566929E-01
  4.566390E-01
  4.626156E-01
  4.657987E-01
  4.724990E-01
  4.735936E-01
  4.752800E-01
  4.696540E-01
  4.663149E-01
  4.612569E-01
  4.650589E-01
  4.703814E-01
  4.815084E-01
  4.855691E-01
  4.865507E-01
  4.772012E-01
  4.690669E-01
  4.586047E-01
  4.554996E-01
  4.526898E-01
  4.578843E-01
  4.588864E-01
  4.744912E-01
  4.788823E-01
  4.846989E-01
  4.736217E-01
  4.670426E-01
  4.534705E-01
  4.540035E-01
  4.522363E-01
  4.630631E-01
  4.659612E-01
  4.749623E-01
  4.712684E-01
  4.730833E-01
  4.654203E-01
  4.678464E-01
  4.641855E-01
  4.712154E-01
  4.702487E-01
  4.769560E-01
  4.729913E-01
  4.757443E-01
  4.685395E-01
  4.695051E-01
  4.620236E-01
  4.638187E-01
  4.580599E-01
  4.620450E-01
  4.583838E-01
  4.636757E-01
  4.601800E-01
  4.648185E-01
  4.605366E-01
  4.650683E-01
  4.616462E-01
  4.674698E-01
  4.648061E-01
  4.701312E-01
  4.655675E-01
  4.681826E-01
  4.612032E-01
  4.630704E-01
  4.579174E-01
  4.636016E-01
  4.626216E-01
  4.709577E-01
  4.699223E-01
  4.758507E-01
  4.709997E-01
  4.727522E-01
  4.643023E-01
  4.641405E-01
  4.568960E-01
  4.614203E-01
  4.611635E-01
  4.719446E-01
  4.734823E-01
  4.799516E-01
  4.725401E-01
  4.696890E-01
  4.567979E-01
  4.541270E-01
  4.471742E-01
  4.545136E-01
  4.645742E-01
  4.746985E-01
  4.743685E-01
  4.798433E-01
  4.693259E-01
  4.646860E-01
  4.506529E-01
  4.509401E-01
  4.477605E-01
  4.593657E-01
  4.628816E-01
  4.740485E-01
  4.705594E-01
  4.726279E-01
  4.632402E-01
  4.656854E-01
  4.623952E-01
  4.725647E-01
  4.735733E-01
  4.818514E-01
  4.757821E-01
  4.763504E-01
  4.662473E-01
  4.673552E-01
  4.602667E-01
  4.637970E-01
  4.575865E-01
  4.617180E-01
  4.578210E-01
  4.662555E-01
  4.663313E-01
  4.751903E-01
  4.705531E-01
  4.719901E-01
  4.620819E-01
  4.640439E-01
  4.601986E-01
  4.693354E-01
  4.685679E-01
  4.747337E-01
  4.675773E-01
  4.693081E-01
  4.633331E-01
  4.707633E-01
  4.704945E-01
  4.793066E-01
  4.749554E-01
  4.771327E-01
  4.673909E-01
  4.672625E-01
  4.580668E-01
  4.602506E-01
  4.549388E-01
  4.621081E-01
  4.613788E-01
  4.703458E-01
  4.670525E-01
  4.706144E-01
  4.625885E-01
  4.649029E-01
  4.589345E-01
  4.639985E-01
  4.597606E-01
  4.661596E-01
  4.629489E-01
  4.711296E-01
  4.710064E-01
  4.750273E-01
  4.672991E-01
  4.647486E-01
  4.555599E-01
  4.571141E-01
  4.551550E-01
  4.632374E-01
  4.641429E-01
  4.705991E-01
  4.666655E-01
  4.683845E-01
  4.629231E-01
  4.672204E-01
  4.668880E-01
  4.758116E-01
  4.767221E-01
  4.824591E-01
  4.767812E-01
  4.754835E-01
  4.652212E-01
  4.629545E-01
  4.550989E-01
  4.571889E-01
  4.543076E-01
  4.607601E-01
  4.608045E-01
  4.684034E-01
  4.677195E-01
  4.731917E-01
  4.697412E-01
  4.731328E-01
  4.693121E-01
  4.738536E-01
  4.713056E-01
  4.755977E-01
  4.707080E-01
  4.717211E-01
  4.648713E-01
  4.671392E-01
  4.648870E-01
  4.727923E-01
  4.738464E-01
  4.804679E-01
  4.759292E-01
  4.758269E-01
  4.669595E-01
  4.662416E-01
  4.594585E-01
  4.613857E-01
  4.567337E-01
  4.603165E-01
  4.573687E-01
  4.627497E-01
  4.611005E-01
  4.667572E-01
  4.641571E-01
  4.679446E-01
  4.630993E-01
  4.650523E-01
  4.598883E-01
  4.639135E-01
  4.673469E-01
  4.682446E-01
  4.680963E-01
  4.711104E-01
  4.691688E-01
  4.676148E-01
  4.620535E-01
  4.608815E-01
  4.599550E-01
  4.649688E-01
  4.680062E-01
  4.722732E-01
  4.702223E-01
  4.684808E-01
  4.637601E-01
  4.649498E-01
  4.675563E-01
  4.761431E-01
  4.810965E-01
  4.845487E-01
  4.791217E-01
  4.728172E-01
  4.634504E-01
  4.599234E-01
  4.570642E-01
  4.595946E-01
  4.601066E-01
  4.638270E-01
  4.653530E-01
  4.711711E-01
  4.747623E-01
  4.800576E-01
  4.790626E-01
  4.775807E-01
  4.718343E-01
  4.707785E-01
  4.699625E-01
  4.741050E-01
  4.743988E-01
  4.747632E-01
  4.698429E-01
  4.683275E-01
  4.668912E-01
  4.717209E-01
  4.745552E-01
  4.781706E-01
  4.750568E-01
  4.722615E-01
  4.662224E-01
  4.646130E-01
  4.618199E-01
  4.632424E-01
  4.625799E-01
  4.654401E-01
  4.652731E-01
  4.669299E-01
  4.639814E-01
  4.632663E-01
  4.608791E-01
  4.641207E-01
  4.664689E-01
  4.714704E-01
  4.710273E-01
  4.709678E-01
  4.612703E-01
  4.621652E-01
  4.655010E-01
  4.685279E-01
  4.712317E-01
  4.716225E-01
  4.716167E-01
  4.709085E-01
  4.717039E-01
  4.724443E-01
  4.735085E-01
  4.723393E-01
  4.701227E-01
  4.666754E-01
  4.654313E-01
  4.665233E-01
  4.713461E-01
  4.767659E-01
  4.814242E-01
  4.815159E-01
  4.778225E-01
  4.704560E-01
  4.635077E-01
  4.580615E-01
  4.568967E-01
  4.586029E-01
  4.632855E-01
  4.675951E-01
  4.712851E-01
  4.723343E-01
  4.726274E-01
  4.717983E-01
  4.722469E-01
  4.731819E-01
  4.759314E-01
  4.781415E-01
  4.796648E-01
  4.778210E-01
  4.739841E-01
  4.682095E-01
  4.641480E-01
  4.621891E-01
  4.640435E-01
  4.670343E-01
  4.704702E-01
  4.713486E-01
  4.709318E-01
  4.690444E-01
  4.684974E-01
  4.683533E-01
  4.693666E-01
  4.691648E-01
  4.687676E-01
  4.671622E-01
  4.664455E-01
  4.656638E-01
  4.662785E-01
  4.667131E-01
  4.680573E-01
  4.684234E-01
  4.686069E-01
  4.667918E-01
  4.646453E-01
  4.618771E-01
  4.616089E-01
  4.592827E-01
  4.626846E-01
  4.670283E-01
  4.731494E-01
  4.749342E-01
  4.756062E-01
  4.731121E-01
  4.732653E-01
  4.733231E-01
  4.759498E-01
  4.754157E-01
  4.740096E-01
  4.686929E-01
  4.655890E-01
  4.638325E-01
  4.682715E-01
  4.737699E-01
  4.802641E-01
  4.803780E-01
  4.767407E-01
  4.681054E-01
  4.623058E-01
  4.588970E-01
  4.620935E-01
  4.663859E-01
  4.724642E-01
  4.744897E-01
  4.758672E-01
  4.742446E-01
  4.746453E-01
  4.736163E-01
  4.741283E-01
  4.721230E-01
  4.718663E-01
  4.707268E-01
  4.725627E-01
  4.725599E-01
  4.727588E-01
  4.689485E-01
  4.659999E-01
  4.623816E-01
  4.630988E-01
  4.641051E-01
  4.672992E-01
  4.675296E-01
  4.684222E-01
  4.675141E-01
  4.694063E-01
  4.701396E-01
  4.722548E-01
  4.715227E-01
  4.722240E-01
  4.717091E-01
  4.737053E-01
  4.733973E-01
  4.732704E-01
  4.699214E-01
  4.687189E-01
  4.675628E-01
  4.698579E-01
  4.699369E-01
  4.694556E-01
  4.647266E-01
  4.547353E-01
  4.561742E-01
  4.605885E-01
  4.664053E-01
  4.721498E-01
  4.758689E-01
  4.773309E-01
  4.769117E-01
  4.761983E-01
  4.755683E-01
  4.750253E-01
  4.733253E-01
  4.704035E-01
  4.667678E-01
  4.644800E-01
  4.646441E-01
  4.677382E-01
  4.720577E-01
  4.756324E-01
  4.760517E-01
  4.730466E-01
  4.675879E-01
  4.625247E-01
  4.600119E-01
  4.617725E-01
  4.670539E-01
  4.738409E-01
  4.784947E-01
  4.789566E-01
  4.749200E-01
  4.690680E-01
  4.642119E-01
  4.629096E-01
  4.652052E-01
  4.699530E-01
  4.741583E-01
  4.756277E-01
  4.730473E-01
  4.678995E-01
  4.623427E-01
  4.590069E-01
  4.584176E-01
  4.601393E-01
  4.622647E-01
  4.639525E-01
  4.648497E-01
  4.661876E-01
  4.684215E-01
  4.716144E-01
  4.740779E-01
  4.747203E-01
  4.729527E-01
  4.703643E-01
  4.685206E-01
  4.690208E-01
  4.714149E-01
  4.747513E-01
  4.770630E-01
  4.775058E-01
  4.753758E-01
  4.713350E-01
  4.658713E-01
  4.604970E-01
  4.562642E-01
  4.577780E-01
  4.578260E-01
  4.595585E-01
  4.661915E-01
  4.706491E-01
  4.746593E-01
  4.730827E-01
  4.717932E-01
  4.688219E-01
  4.699488E-01
  4.702514E-01
  4.721517E-01
  4.696224E-01
  4.671104E-01
  4.621991E-01
  4.617869E-01
  4.629660E-01
  4.692227E-01
  4.732918E-01
  4.763041E-01
  4.725592E-01
  4.680881E-01
  4.620325E-01
  4.618473E-01
  4.641276E-01
  4.715829E-01
  4.766498E-01
  4.807481E-01
  4.785210E-01
  4.757390E-01
  4.703386E-01
  4.682406E-01
  4.652801E-01
  4.653460E-01
  4.638464E-01
  4.651974E-01
  4.649195E-01
  4.667119E-01
  4.654134E-01
  4.651743E-01
  4.623537E-01
  4.624125E-01
  4.616431E-01
  4.640652E-01
  4.645037E-01
  4.668581E-01
  4.670754E-01
  4.699393E-01
  4.707136E-01
  4.725471E-01
  4.701523E-01
  4.685544E-01
  4.655037E-01
  4.673341E-01
  4.698874E-01
  4.756295E-01
  4.776477E-01
  4.790703E-01
  4.762254E-01
  4.750870E-01
  4.720218E-01
  4.708209E-01
  4.662047E-01
  4.627345E-01
  4.557269E-01
  4.591304E-01
  4.605886E-01
  4.663345E-01
  4.681846E-01
  4.721787E-01
  4.706842E-01
  4.713052E-01
  4.679445E-01
  4.685311E-01
  4.659684E-01
  4.668187E-01
  4.635820E-01
  4.637478E-01
  4.612012E-01
  4.638829E-01
  4.648080E-01
  4.703190E-01
  4.719512E-01
  4.753691E-01
  4.724538E-01
  4.705579E-01
  4.640326E-01
  4.622955E-01
  4.603101E-01
  4.657280E-01
  4.698478E-01
  4.765359E-01
  4.756534E-01
  4.736996E-01
  4.656247E-01
  4.619854E-01
  4.582694E-01
  4.619932E-01
  4.643817E-01
  4.697751E-01
  4.688756E-01
  4.684828E-01
  4.630023E-01
  4.617316E-01
  4.589976E-01
  4.618788E-01
  4.622137E-01
  4.658920E-01
  4.653347E-01
  4.680331E-01
  4.674815E-01
  4.708384E-01
  4.701587E-01
  4.714668E-01
  4.672057E-01
  4.653808E-01
  4.607112E-01
  4.620571E-01
  4.630831E-01
  4.701618E-01
  4.742504E-01
  4.801900E-01
  4.791501E-01
  4.780220E-01
  4.707243E-01
  4.662672E-01
  4.593047E-01
  4.580447E-01
  4.639941E-01
  4.643656E-01
  4.632827E-01
  4.667512E-01
  4.674714E-01
  4.699002E-01
  4.673082E-01
  4.665231E-01
  4.630399E-01
  4.639826E-01
  4.631664E-01
  4.654975E-01
  4.638680E-01
  4.642356E-01
  4.616373E-01
  4.636103E-01
  4.650357E-01
  4.714439E-01
  4.748708E-01
  4.789793E-01
  4.761805E-01
  4.730285E-01
  4.656849E-01
  4.629471E-01
  4.604877E-01
  4.641722E-01
  4.662734E-01
  4.706544E-01
  4.699680E-01
  4.705260E-01
  4.674499E-01
  4.677246E-01
  4.653436E-01
  4.658920E-01
  4.632065E-01
  4.638047E-01
  4.622863E-01
  4.647820E-01
  4.646365E-01
  4.670931E-01
  4.658602E-01
  4.674292E-01
  4.663952E-01
  4.689480E-01
  4.685801E-01
  4.707408E-01
  4.690995E-01
  4.697600E-01
  4.666929E-01
  4.659260E-01
  4.617594E-01
  4.612887E-01
  4.598585E-01
  4.641194E-01
  4.671817E-01
  4.729440E-01
  4.732850E-01
  4.737412E-01
  4.695090E-01
  4.686305E-01
  4.661828E-01
  4.678826E-01
  4.664722E-01
  4.671036E-01
  4.663885E-01
  4.685360E-01
  4.674905E-01
  4.676284E-01
  4.666343E-01
  4.681040E-01
  4.680761E-01
  4.691351E-01
  4.675059E-01
  4.666702E-01
  4.637368E-01
  4.627160E-01
  4.609671E-01
  4.624309E-01
  4.638895E-01
  4.681733E-01
  4.710238E-01
  4.751019E-01
  4.767275E-01
  4.789746E-01
  4.776891E-01
  4.754019E-01
  4.687546E-01
  4.627481E-01
  4.566762E-01
  4.559777E-01
  4.574277E-01
  4.622899E-01
  4.643111E-01
  4.652011E-01
  4.623456E-01
  4.614777E-01
  4.612620E-01
  4.652264E-01
  4.683307E-01
  4.716531E-01
  4.705428E-01
  4.688969E-01
  4.651069E-01
  4.642261E-01
  4.635639E-01
  4.660529E-01
  4.673564E-01
  4.699291E-01
  4.698934E-01
  4.705075E-01
  4.685126E-01
  4.675293E-01
  4.645689E-01
  4.635224E-01
  4.615909E-01
  4.624682E-01
  4.627146E-01
  4.652019E-01
  4.659964E-01
  4.680241E-01
  4.676154E-01
  4.678530E-01
  4.651948E-01
  4.633717E-01
  4.601262E-01
  4.601603E-01
  4.607364E-01
  4.644733E-01
  4.774422E-01
  4.756050E-01
  4.716458E-01
  4.685710E-01
  4.667818E-01
  4.667367E-01
  4.667794E-01
  4.669151E-01
  4.662473E-01
  4.656932E-01
  4.647518E-01
  4.643158E-01
  4.638850E-01
  4.645157E-01
  4.657749E-01
  4.684391E-01
  4.715144E-01
  4.751873E-01
  4.779731E-01
  4.796839E-01
  4.786900E-01
  4.753451E-01
  4.695531E-01
  4.636727E-01
  4.588064E-01
  4.567163E-01
  4.565282E-01
  4.580195E-01
  4.595850E-01
  4.617223E-01
  4.639584E-01
  4.669980E-01
  4.693482E-01
  4.706313E-01
  4.696555E-01
  4.679029E-01
  4.661203E-01
  4.660403E-01
  4.667472E-01
  4.680070E-01
  4.684336E-01
  4.689897E-01
  4.696031E-01
  4.710904E-01
  4.718268E-01
  4.713067E-01
  4.683378E-01
  4.644766E-01
  4.606278E-01
  4.590365E-01
  4.597487E-01
  4.633034E-01
  4.678492E-01
  4.722391E-01
  4.737230E-01
  4.717827E-01
  4.660318E-01
  4.592396E-01
  4.535770E-01
  4.521872E-01
  4.552042E-01
  4.622421E-01
  4.699120E-01
  4.758653E-01
  4.794088E-01
  4.789455E-01
  4.747864E-01
  4.689907E-01
  4.655919E-01
  4.649210E-01
  4.671080E-01
  4.691762E-01
  4.702105E-01
  4.685234E-01
  4.657662E-01
  4.626307E-01
  4.617971E-01
  4.631697E-01
  4.671271E-01
  4.709244E-01
  4.737006E-01
  4.739906E-01
  4.738258E-01
  4.736006E-01
  4.743319E-01
  4.735298E-01
  4.705105E-01
  4.643985E-01
  4.583577E-01
  4.541751E-01
  4.540541E-01
  4.560298E-01
  4.587927E-01
  4.598506E-01
  4.605767E-01
  4.617736E-01
  4.656237E-01
  4.704893E-01
  4.750496E-01
  4.760801E-01
  4.739647E-01
  4.691644E-01
  4.649887E-01
  4.623017E-01
  4.626337E-01
  4.645066E-01
  4.677465E-01
  4.700572E-01
  4.711821E-01
  4.694666E-01
  4.661589E-01
  4.616438E-01
  4.588021E-01
  4.583029E-01
  4.615506E-01
  4.664471E-01
  4.715322E-01
  4.733819E-01
  4.719260E-01
  4.671136E-01
  4.619239E-01
  4.570905E-01
  4.543228E-01
  4.530192E-01
  4.547489E-01
  4.592124E-01
  4.668679E-01
  4.743821E-01
  4.858333E-01
  4.810781E-01
  4.754814E-01
  4.680919E-01
  4.650700E-01
  4.626780E-01
  4.640312E-01
  4.638418E-01
  4.652873E-01
  4.640523E-01
  4.644701E-01
  4.630577E-01
  4.644022E-01
  4.646144E-01
  4.673141E-01
  4.676429E-01
  4.691014E-01
  4.677797E-01
  4.685149E-01
  4.679017E-01
  4.698513E-01
  4.693663E-01
  4.695556E-01
  4.662520E-01
  4.644236E-01
  4.611316E-01
  4.609557E-01
  4.597413E-01
  4.613586E-01
  4.620199E-01
  4.661705E-01
  4.694646E-01
  4.745273E-01
  4.753613E-01
  4.750587E-01
  4.703688E-01
  4.674791E-01
  4.640312E-01
  4.643583E-01
  4.636359E-01
  4.652908E-01
  4.654494E-01
  4.685115E-01
  4.698757E-01
  4.719756E-01
  4.691461E-01
  4.654631E-01
  4.587948E-01
  4.559245E-01
  4.548050E-01
  4.597339E-01
  4.652441E-01
  4.727927E-01
  4.756246E-01
  4.762226E-01
  4.706248E-01
  4.646531E-01
  4.568478E-01
  4.537966E-01
  4.531837E-01
  4.593844E-01
  4.670954E-01
  4.775663E-01
  4.832711E-01
  4.795534E-01
  4.763222E-01
  4.741999E-01
  4.662028E-01
  4.642014E-01
  4.604204E-01
  4.635316E-01
  4.627788E-01
  4.656902E-01
  4.624973E-01
  4.629938E-01
  4.594795E-01
  4.623460E-01
  4.626214E-01
  4.681184E-01
  4.674925E-01
  4.684990E-01
  4.626237E-01
  4.615694E-01
  4.587322E-01
  4.637232E-01
  4.654525E-01
  4.701780E-01
  4.672673E-01
  4.670065E-01
  4.626120E-01
  4.647481E-01
  4.637692E-01
  4.672156E-01
  4.650009E-01
  4.670733E-01
  4.659227E-01
  4.714608E-01
  4.732895E-01
  4.782028E-01
  4.750546E-01
  4.730794E-01
  4.648983E-01
  4.621353E-01
  4.574338E-01
  4.604333E-01
  4.613903E-01
  4.679571E-01
  4.690328E-01
  4.720675E-01
  4.671524E-01
  4.644332E-01
  4.569597E-01
  4.562774E-01
  4.547461E-01
  4.611798E-01
  4.645655E-01
  4.713431E-01
  4.704327E-01
  4.711771E-01
  4.662529E-01
  4.668781E-01
  4.644740E-01
  4.673204E-01
  4.652590E-01
  4.677059E-01
  4.667943E-01
  4.724813E-01
  4.745006E-01
  4.775006E-01
  4.713686E-01
  4.717224E-01
  4.645654E-01
  4.654813E-01
  4.597034E-01
  4.618926E-01
  4.570731E-01
  4.601478E-01
  4.565339E-01
  4.612610E-01
  4.595275E-01
  4.658009E-01
  4.644091E-01
  4.691291E-01
  4.642391E-01
  4.648821E-01
  4.575401E-01
  4.589213E-01
  4.554903E-01
  4.619811E-01
  4.623609E-01
  4.698457E-01
  4.685166E-01
  4.733419E-01
  4.699057E-01
  4.734867E-01
  4.691873E-01
  4.722781E-01
  4.686774E-01
  4.740980E-01
  4.732306E-01
  4.792616E-01
  4.751301E-01
  4.751981E-01
  4.659568E-01
  4.649397E-01
  4.589719E-01
  4.628597E-01
  4.606821E-01
  4.664546E-01
  4.653181E-01
  4.721639E-01
  4.710880E-01
  4.752478E-01
  4.684371E-01
  4.663976E-01
  4.567050E-01
  4.568390E-01
  4.532992E-01
  4.603031E-01
  4.613709E-01
  4.695179E-01
  4.687845E-01
  4.740593E-01
  4.709501E-01
  4.749647E-01
  4.713664E-01
  4.751339E-01
  4.713822E-01
  4.754487E-01
  4.726182E-01
  4.775800E-01
  4.745060E-01
  4.667660E-01
  4.651742E-01
  4.700672E-01
  4.650046E-01
  4.670281E-01
  4.613401E-01
  4.644231E-01
  4.599663E-01
  4.633479E-01
  4.584574E-01
  4.617766E-01
  4.582647E-01
  4.643743E-01
  4.636096E-01
  4.703011E-01
  4.664562E-01
  4.673874E-01
  4.584449E-01
  4.584868E-01
  4.540609E-01
  4.613692E-01
  4.625170E-01
  4.706672E-01
  4.683177E-01
  4.722847E-01
  4.683029E-01
  4.733656E-01
  4.706555E-01
  4.748509E-01
  4.694292E-01
  4.716100E-01
  4.669830E-01
  4.721733E-01
  4.700301E-01
  4.747857E-01
  4.691295E-01
  4.694219E-01
  4.611644E-01
  4.622210E-01
  4.579682E-01
  4.646152E-01
  4.653804E-01
  4.744901E-01
  4.736870E-01
  4.774922E-01
  4.697295E-01
  4.682322E-01
  4.594161E-01
  4.611123E-01