# vtk DataFile Version 2.0
title
ASCII
DATASET STRUCTURED_GRID
DIMENSIONS   64   64    1
POINTS   4096  float
  0.000000E+00  0.000000E+00  0.000000E+00
  0.000000E+00  3.906250E-01  0.000000E+00
  0.000000E+00  7.812500E-01  0.000000E+00
  0.000000E+00  1.171875E+00  0.000000E+00
  0.000000E+00  1.562500E+00  0.000000E+00
  0.000000E+00  1.953125E+00  0.000000E+00
  0.000000E+00  2.343750E+00  0.000000E+00
  0.000000E+00  2.734375E+00  0.000000E+00
  0.000000E+00  3.125000E+00  0.000000E+00
  0.000000E+00  3.515625E+00  0.000000E+00
  0.000000E+00  3.906250E+00  0.000000E+00
  0.000000E+00  4.296875E+00  0.000000E+00
  0.000000E+00  4.687500E+00  0.000000E+00
  0.000000E+00  5.078125E+00  0.000000E+00
  0.000000E+00  5.468750E+00  0.000000E+00
  0.000000E+00  5.859375E+00  0.000000E+00
  0.000000E+00  6.250000E+00  0.000000E+00
  0.000000E+00  6.640625E+00  0.000000E+00
  0.000000E+00  7.031250E+00  0.000000E+00
  0.000000E+00  7.421875E+00  0.000000E+00
  0.000000E+00  7.812500E+00  0.000000E+00
  0.000000E+00  8.203125E+00  0.000000E+00
  0.000000E+00  8.593750E+00  0.000000E+00
  0.000000E+00  8.984375E+00  0.000000E+00
  0.000000E+00  9.375000E+00  0.000000E+00
  0.000000E+00  9.765625E+00  0.000000E+00
  0.000000E+00  1.015625E+01  0.000000E+00
  0.000000E+00  1.054688E+01  0.000000E+00
  0.000000E+00  1.093750E+01  0.000000E+00
  0.000000E+00  1.132812E+01  0.000000E+00
  0.000000E+00  1.171875E+01  0.000000E+00
  0.000000E+00  1.210938E+01  0.000000E+00
  0.000000E+00  1.250000E+01  0.000000E+00
  0.000000E+00  1.289062E+01  0.000000E+00
  0.000000E+00  1.328125E+01  0.000000E+00
  0.000000E+00  1.367188E+01  0.000000E+00
  0.000000E+00  1.406250E+01  0.000000E+00
  0.000000E+00  1.445312E+01  0.000000E+00
  0.000000E+00  1.484375E+01  0.000000E+00
  0.000000E+00  1.523438E+01  0.000000E+00
  0.000000E+00  1.562500E+01  0.000000E+00
  0.000000E+00  1.601562E+01  0.000000E+00
  0.000000E+00  1.640625E+01  0.000000E+00
  0.000000E+00  1.679688E+01  0.000000E+00
  0.000000E+00  1.718750E+01  0.000000E+00
  0.000000E+00  1.757812E+01  0.000000E+00
  0.000000E+00  1.796875E+01  0.000000E+00
  0.000000E+00  1.835938E+01  0.000000E+00
  0.000000E+00  1.875000E+01  0.000000E+00
  0.000000E+00  1.914062E+01  0.000000E+00
  0.000000E+00  1.953125E+01  0.000000E+00
  0.000000E+00  1.992188E+01  0.000000E+00
  0.000000E+00  2.031250E+01  0.000000E+00
  0.000000E+00  2.070312E+01  0.000000E+00
  0.000000E+00  2.109375E+01  0.000000E+00
  0.000000E+00  2.148438E+01  0.000000E+00
  0.000000E+00  2.187500E+01  0.000000E+00
  0.000000E+00  2.226562E+01  0.000000E+00
  0.000000E+00  2.265625E+01  0.000000E+00
  0.000000E+00  2.304688E+01  0.000000E+00
  0.000000E+00  2.343750E+01  0.000000E+00
  0.000000E+00  2.382812E+01  0.000000E+00
  0.000000E+00  2.421875E+01  0.000000E+00
  0.000000E+00  2.460938E+01  0.000000E+00
  3.906250E-01  0.000000E+00  0.000000E+00
  3.906250E-01  3.906250E-01  0.000000E+00
  3.906250E-01  7.812500E-01  0.000000E+00
  3.906250E-01  1.171875E+00  0.000000E+00
  3.906250E-01  1.562500E+00  0.000000E+00
  3.906250E-01  1.953125E+00  0.000000E+00
  3.906250E-01  2.343750E+00  0.000000E+00
  3.906250E-01  2.734375E+00  0.000000E+00
  3.906250E-01  3.125000E+00  0.000000E+00
  3.906250E-01  3.515625E+00  0.000000E+00
  3.906250E-01  3.906250E+00  0.000000E+00
  3.906250E-01  4.296875E+00  0.000000E+00
  3.906250E-01  4.687500E+00  0.000000E+00
  3.906250E-01  5.078125E+00  0.000000E+00
  3.906250E-01  5.468750E+00  0.000000E+00
  3.906250E-01  5.859375E+00  0.000000E+00
  3.906250E-01  6.250000E+00  0.000000E+00
  3.906250E-01  6.640625E+00  0.000000E+00
  3.906250E-01  7.031250E+00  0.000000E+00
  3.906250E-01  7.421875E+00  0.000000E+00
  3.906250E-01  7.812500E+00  0.000000E+00
  3.906250E-01  8.203125E+00  0.000000E+00
  3.906250E-01  8.593750E+00  0.000000E+00
  3.906250E-01  8.984375E+00  0.000000E+00
  3.906250E-01  9.375000E+00  0.000000E+00
  3.906250E-01  9.765625E+00  0.000000E+00
  3.906250E-01  1.015625E+01  0.000000E+00
  3.906250E-01  1.054688E+01  0.000000E+00
  3.906250E-01  1.093750E+01  0.000000E+00
  3.906250E-01  1.132812E+01  0.000000E+00
  3.906250E-01  1.171875E+01  0.000000E+00
  3.906250E-01  1.210938E+01  0.000000E+00
  3.906250E-01  1.250000E+01  0.000000E+00
  3.906250E-01  1.289062E+01  0.000000E+00
  3.906250E-01  1.328125E+01  0.000000E+00
  3.906250E-01  1.367188E+01  0.000000E+00
  3.906250E-01  1.406250E+01  0.000000E+00
  3.906250E-01  1.445312E+01  0.000000E+00
  3.906250E-01  1.484375E+01  0.000000E+00
  3.906250E-01  1.523438E+01  0.000000E+00
  3.906250E-01  1.562500E+01  0.000000E+00
  3.906250E-01  1.601562E+01  0.000000E+00
  3.906250E-01  1.640625E+01  0.000000E+00
  3.906250E-01  1.679688E+01  0.000000E+00
  3.906250E-01  1.718750E+01  0.000000E+00
  3.906250E-01  1.757812E+01  0.000000E+00
  3.906250E-01  1.796875E+01  0.000000E+00
  3.906250E-01  1.835938E+01  0.000000E+00
  3.906250E-01  1.875000E+01  0.000000E+00
  3.906250E-01  1.914062E+01  0.000000E+00
  3.906250E-01  1.953125E+01  0.000000E+00
  3.906250E-01  1.992188E+01  0.000000E+00
  3.906250E-01  2.031250E+01  0.000000E+00
  3.906250E-01  2.070312E+01  0.000000E+00
  3.906250E-01  2.109375E+01  0.000000E+00
  3.906250E-01  2.148438E+01  0.000000E+00
  3.906250E-01  2.187500E+01  0.000000E+00
  3.906250E-01  2.226562E+01  0.000000E+00
  3.906250E-01  2.265625E+01  0.000000E+00
  3.906250E-01  2.304688E+01  0.000000E+00
  3.906250E-01  2.343750E+01  0.000000E+00
  3.906250E-01  2.382812E+01  0.000000E+00
  3.906250E-01  2.421875E+01  0.000000E+00
  3.906250E-01  2.460938E+01  0.000000E+00
  7.812500E-01  0.000000E+00  0.000000E+00
  7.812500E-01  3.906250E-01  0.000000E+00
  7.812500E-01  7.812500E-01  0.000000E+00
  7.812500E-01  1.171875E+00  0.000000E+00
  7.812500E-01  1.562500E+00  0.000000E+00
  7.812500E-01  1.953125E+00  0.000000E+00
  7.812500E-01  2.343750E+00  0.000000E+00
  7.812500E-01  2.734375E+00  0.000000E+00
  7.812500E-01  3.125000E+00  0.000000E+00
  7.812500E-01  3.515625E+00  0.000000E+00
  7.812500E-01  3.906250E+00  0.000000E+00
  7.812500E-01  4.296875E+00  0.000000E+00
  7.812500E-01  4.687500E+00  0.000000E+00
  7.812500E-01  5.078125E+00  0.000000E+00
  7.812500E-01  5.468750E+00  0.000000E+00
  7.812500E-01  5.859375E+00  0.000000E+00
  7.812500E-01  6.250000E+00  0.000000E+00
  7.812500E-01  6.640625E+00  0.000000E+00
  7.812500E-01  7.031250E+00  0.000000E+00
  7.812500E-01  7.421875E+00  0.000000E+00
  7.812500E-01  7.812500E+00  0.000000E+00
  7.812500E-01  8.203125E+00  0.000000E+00
  7.812500E-01  8.593750E+00  0.000000E+00
  7.812500E-01  8.984375E+00  0.000000E+00
  7.812500E-01  9.375000E+00  0.000000E+00
  7.812500E-01  9.765625E+00  0.000000E+00
  7.812500E-01  1.015625E+01  0.000000E+00
  7.812500E-01  1.054688E+01  0.000000E+00
  7.812500E-01  1.093750E+01  0.000000E+00
  7.812500E-01  1.132812E+01  0.000000E+00
  7.812500E-01  1.171875E+01  0.000000E+00
  7.812500E-01  1.210938E+01  0.000000E+00
  7.812500E-01  1.250000E+01  0.000000E+00
  7.812500E-01  1.289062E+01  0.000000E+00
  7.812500E-01  1.328125E+01  0.000000E+00
  7.812500E-01  1.367188E+01  0.000000E+00
  7.812500E-01  1.406250E+01  0.000000E+00
  7.812500E-01  1.445312E+01  0.000000E+00
  7.812500E-01  1.484375E+01  0.000000E+00
  7.812500E-01  1.523438E+01  0.000000E+00
  7.812500E-01  1.562500E+01  0.000000E+00
  7.812500E-01  1.601562E+01  0.000000E+00
  7.812500E-01  1.640625E+01  0.000000E+00
  7.812500E-01  1.679688E+01  0.000000E+00
  7.812500E-01  1.718750E+01  0.000000E+00
  7.812500E-01  1.757812E+01  0.000000E+00
  7.812500E-01  1.796875E+01  0.000000E+00
  7.812500E-01  1.835938E+01  0.000000E+00
  7.812500E-01  1.875000E+01  0.000000E+00
  7.812500E-01  1.914062E+01  0.000000E+00
  7.812500E-01  1.953125E+01  0.000000E+00
  7.812500E-01  1.992188E+01  0.000000E+00
  7.812500E-01  2.031250E+01  0.000000E+00
  7.812500E-01  2.070312E+01  0.000000E+00
  7.812500E-01  2.109375E+01  0.000000E+00
  7.812500E-01  2.148438E+01  0.000000E+00
  7.812500E-01  2.187500E+01  0.000000E+00
  7.812500E-01  2.226562E+01  0.000000E+00
  7.812500E-01  2.265625E+01  0.000000E+00
  7.812500E-01  2.304688E+01  0.000000E+00
  7.812500E-01  2.343750E+01  0.000000E+00
  7.812500E-01  2.382812E+01  0.000000E+00
  7.812500E-01  2.421875E+01  0.000000E+00
  7.812500E-01  2.460938E+01  0.000000E+00
  1.171875E+00  0.000000E+00  0.000000E+00
  1.171875E+00  3.906250E-01  0.000000E+00
  1.171875E+00  7.812500E-01  0.000000E+00
  1.171875E+00  1.171875E+00  0.000000E+00
  1.171875E+00  1.562500E+00  0.000000E+00
  1.171875E+00  1.953125E+00  0.000000E+00
  1.171875E+00  2.343750E+00  0.000000E+00
  1.171875E+00  2.734375E+00  0.000000E+00
  1.171875E+00  3.125000E+00  0.000000E+00
  1.171875E+00  3.515625E+00  0.000000E+00
  1.171875E+00  3.906250E+00  0.000000E+00
  1.171875E+00  4.296875E+00  0.000000E+00
  1.171875E+00  4.687500E+00  0.000000E+00
  1.171875E+00  5.078125E+00  0.000000E+00
  1.171875E+00  5.468750E+00  0.000000E+00
  1.171875E+00  5.859375E+00  0.000000E+00
  1.171875E+00  6.250000E+00  0.000000E+00
  1.171875E+00  6.640625E+00  0.000000E+00
  1.171875E+00  7.031250E+00  0.000000E+00
  1.171875E+00  7.421875E+00  0.000000E+00
  1.171875E+00  7.812500E+00  0.000000E+00
  1.171875E+00  8.203125E+00  0.000000E+00
  1.171875E+00  8.593750E+00  0.000000E+00
  1.171875E+00  8.984375E+00  0.000000E+00
  1.171875E+00  9.375000E+00  0.000000E+00
  1.171875E+00  9.765625E+00  0.000000E+00
  1.171875E+00  1.015625E+01  0.000000E+00
  1.171875E+00  1.054688E+01  0.000000E+00
  1.171875E+00  1.093750E+01  0.000000E+00
  1.171875E+00  1.132812E+01  0.000000E+00
  1.171875E+00  1.171875E+01  0.000000E+00
  1.171875E+00  1.210938E+01  0.000000E+00
  1.171875E+00  1.250000E+01  0.000000E+00
  1.171875E+00  1.289062E+01  0.000000E+00
  1.171875E+00  1.328125E+01  0.000000E+00
  1.171875E+00  1.367188E+01  0.000000E+00
  1.171875E+00  1.406250E+01  0.000000E+00
  1.171875E+00  1.445312E+01  0.000000E+00
[...]
POINT_DATA   4096
SCALARS CON  float  1
LOOKUP_TABLE default
  4.711079E-01
  4.746577E-01
  4.847913E-01
  4.796920E-01
  4.796704E-01
  4.693608E-01
  4.717886E-01
  4.690131E-01
  4.779841E-01
  4.759030E-01
  4.794591E-01
  4.698394E-01
  4.691518E-01
  4.615491E-01
  4.675763E-01
  4.672563E-01
  4.769220E-01
  4.747208E-01
  4.787388E-01
  4.705766E-01
  4.711652E-01
  4.625626E-01
  4.640208E-01
  4.563832E-01
  4.591065E-01
  4.545339E-01
  4.626493E-01
  4.641320E-01
  4.756772E-01
  4.750764E-01
  4.798535E-01
  4.718563E-01
  4.733165E-01
  4.676069E-01
  4.740470E-01
  4.714098E-01
  4.762247E-01
  4.683920E-01
  4.683186E-01
  4.590957E-01
  4.610883E-01
  4.550319E-01
  4.586838E-01
  4.524397E-01
  4.561047E-01
  4.530471E-01
  4.640395E-01
  4.696832E-01
  4.850722E-01
  4.851570E-01
  4.858369E-01
  4.698707E-01
  4.631567E-01
  4.536124E-01
  4.636554E-01
  4.729085E-01
  4.939701E-01
  4.991638E-01
  5.030148E-01
  4.875293E-01
  4.782335E-01
  4.621584E-01
  4.619774E-01
  4.592860E-01
  4.725656E-01
  4.780361E-01
  4.894828E-01
  4.872103E-01
  4.858935E-01
  4.729627E-01
  4.691374E-01
  4.626154E-01
  4.692623E-01
  4.710378E-01
  4.796230E-01
  4.766390E-01
  4.775152E-01
  4.688304E-01
  4.689970E-01
  4.644190E-01
  4.704782E-01
  4.698054E-01
  4.754802E-01
  4.705268E-01
  4.710138E-01
  4.632617E-01
  4.645291E-01
  4.599736E-01
  4.644253E-01
  4.616102E-01
  4.666996E-01
  4.647599E-01
  4.717029E-01
  4.715804E-01
  4.784948E-01
  4.752734E-01
  4.769341E-01
  4.687966E-01
  4.682884E-01
  4.617159E-01
  4.652489E-01
  4.626494E-01
  4.676537E-01
  4.631534E-01
  4.640406E-01
  4.555765E-01
  4.546473E-01
  4.475371E-01
  4.509473E-01
  4.507331E-01
  4.624627E-01
  4.692866E-01
  4.827082E-01
  4.822669E-01
  4.815954E-01
  4.681695E-01
  4.643050E-01
  4.604876E-01
  4.737703E-01
  4.850738E-01
  5.022702E-01
  5.023281E-01
  4.993114E-01
  4.819409E-01
  4.727790E-01
  4.606930E-01
  4.622157E-01
  4.614146E-01
  4.629603E-01
  4.775263E-01
  4.907379E-01
  4.923573E-01
  4.863536E-01
  4.733784E-01
  4.648169E-01
  4.604289E-01
  4.646186E-01
  4.698699E-01
  4.765951E-01
  4.774575E-01
  4.765806E-01
  4.714539E-01
  4.691226E-01
  4.666789E-01
  4.684336E-01
  4.687911E-01
  4.709994E-01
  4.700216E-01
  4.704028E-01
  4.680715E-01
  4.676782E-01
  4.648671E-01
  4.643069E-01
  4.621669E-01
  4.634567E-01
  4.637666E-01
  4.666451E-01
  4.663741E-01
  4.667244E-01
  4.637994E-01
  4.634766E-01
  4.625485E-01
  4.655125E-01
  4.667189E-01
  4.689801E-01
  4.669588E-01
  4.653083E-01
  4.604124E-01
  4.574727E-01
  4.525948E-01
  4.505980E-01
  4.477644E-01
  4.495215E-01
  4.526260E-01
  4.616968E-01
  4.707203E-01
  4.804035E-01
  4.821536E-01
  4.789221E-01
  4.689574E-01
  4.624141E-01
  4.602527E-01
  4.691731E-01
  4.824065E-01
  4.975787E-01
  5.022803E-01
  4.972865E-01
  4.808269E-01
  4.643192E-01
  4.499540E-01
  4.460891E-01
  4.494834E-01
  4.635754E-01
  4.788474E-01
  4.870193E-01
  4.920340E-01
  4.820455E-01
  4.707354E-01
  4.554354E-01
  4.514292E-01
  4.511672E-01
  4.622219E-01
  4.704045E-01
  4.800756E-01
  4.784525E-01
  4.760452E-01
  4.668282E-01
  4.645821E-01
  4.619021E-01
  4.678141E-01
  4.700475E-01
  4.753832E-01
  4.728997E-01
  4.732460E-01
  4.685955E-01
  4.697219E-01
  4.665719E-01
  4.676995E-01
  4.630443E-01
  4.631236E-01
  4.599037E-01
  4.637936E-01
  4.643073E-01
  4.688391E-01
  4.658008E-01
  4.647658E-01
  4.581502E-01
  4.583532E-01
  4.573543E-01
  4.638471E-01
  4.653814E-01
  4.687387E-01
  4.633918E-01
  4.606298E-01
  4.537153E-01
  4.544988E-01
  4.541689E-01
  4.616107E-01
  4.657446E-01
  4.742364E-01
  4.751216E-01
  4.763876E-01
  4.686093E-01
  4.644170E-01
  4.585053E-01
  4.636337E-01
  4.702477E-01
  4.841436E-01
  4.894854E-01
  4.913144E-01
  4.798921E-01
  4.695505E-01
  4.560080E-01
  4.520168E-01
  4.488672E-01
  4.560188E-01
  4.579623E-01
  4.769560E-01
  4.819835E-01
  4.885799E-01
  4.747712E-01
  4.665967E-01
  4.500509E-01
  4.504660E-01
  4.480957E-01
  4.610875E-01
  4.648014E-01
  4.760134E-01
  4.716810E-01
  4.737681E-01
  4.642678E-01
  4.669983E-01
  4.624755E-01
  4.710139E-01
  4.700691E-01
  4.785656E-01
  4.741573E-01
  4.777480E-01
  4.690553E-01
  4.700737E-01
  4.608198E-01
  4.628727E-01
  4.559667E-01
  4.609596E-01
  4.567135E-01
  4.631492E-01
  4.587682E-01
  4.640884E-01
  4.586303E-01
  4.639879E-01
  4.599753E-01
  4.673082E-01
  4.643546E-01
  4.708534E-01
  4.651706E-01
  4.681721E-01
  4.598033E-01
  4.623786E-01
  4.564515E-01
  4.633124E-01
  4.617894E-01
  4.715200E-01
  4.702207E-01
  4.776244E-01
  4.718849E-01
  4.737805E-01
  4.630494E-01
  4.623824E-01
  4.534401E-01
  4.589842E-01
  4.589780E-01
  4.724520E-01
  4.747240E-01
  4.826859E-01
  4.733762E-01
  4.693426E-01
  4.533848E-01
  4.503006E-01
  4.425463E-01
  4.521522E-01
  4.644704E-01
  4.768601E-01
  4.762473E-01
  4.823113E-01
  4.694248E-01
  4.636915E-01
  4.468324E-01
  4.468717E-01
  4.429185E-01
  4.568364E-01
  4.615597E-01
  4.753699E-01
  4.713129E-01
  4.734100E-01
  4.617775E-01
  4.644132E-01
  4.605621E-01
  4.729219E-01
  4.745217E-01
  4.847740E-01
  4.778461E-01
  4.786416E-01
  4.665227E-01
  4.675323E-01
  4.587054E-01
  4.625540E-01
  4.550698E-01
  4.600815E-01
  4.556404E-01
  4.656862E-01
  4.655732E-01
  4.757975E-01
  4.701670E-01
  4.721259E-01
  4.608908E-01
  4.637038E-01
  4.592695E-01
  4.698895E-01
  4.686834E-01
  4.760563E-01
  4.680119E-01
  4.705769E-01
  4.635130E-01
  4.717639E-01
  4.706723E-01
  4.808260E-01
  4.760091E-01
  4.791939E-01
  4.677719E-01
  4.671589E-01
  4.555694E-01
  4.578227E-01
  4.516753E-01
  4.605012E-01
  4.598157E-01
  4.704302E-01
  4.663746E-01
  4.703772E-01
  4.604117E-01
  4.625440E-01
  4.549812E-01
  4.610252E-01
  4.567372E-01
  4.654295E-01
  4.624075E-01
  4.724454E-01
  4.724573E-01
  4.768209E-01
  4.672832E-01
  4.636458E-01
  4.525050E-01
  4.540464E-01
  4.519333E-01
  4.617376E-01
  4.634483E-01
  4.714101E-01
  4.669194E-01
  4.685240E-01
  4.616804E-01
  4.662891E-01
  4.660081E-01
  4.768929E-01
  4.787530E-01
  4.859691E-01
  4.794271E-01
  4.774810E-01
  4.650447E-01
  4.620159E-01
  4.527959E-01
  4.552325E-01
  4.520481E-01
  4.596347E-01
  4.597248E-01
  4.683251E-01
  4.672007E-01
  4.732457E-01
  4.693240E-01
  4.737370E-01
  4.700630E-01
  4.759065E-01
  4.731001E-01
  4.777291E-01
  4.715830E-01
  4.725015E-01
  4.647688E-01
  4.678234E-01
  4.655334E-01
  4.745794E-01
  4.753809E-01
  4.826516E-01
  4.773489E-01
  4.774348E-01
  4.673102E-01
  4.662757E-01
  4.579680E-01
  4.596987E-01
  4.540680E-01
  4.581848E-01
  4.549469E-01
  4.613652E-01
  4.596120E-01
  4.660917E-01
  4.627464E-01
  4.665600E-01
  4.605032E-01
  4.626909E-01
  4.572099E-01
  4.626703E-01
  4.677431E-01
  4.688262E-01
  4.686961E-01
  4.716599E-01
  4.692352E-01
  4.669210E-01
  4.603975E-01
  4.587203E-01
  4.580260E-01
  4.642147E-01
  4.686619E-01
  4.738750E-01
  4.715400E-01
  4.686887E-01
  4.626855E-01
  4.634910E-01
  4.668602E-01
  4.772417E-01
  4.839071E-01
  4.881245E-01
  4.818789E-01
  4.738667E-01
  4.626480E-01
  4.579906E-01
  4.546846E-01
  4.574274E-01
  4.584077E-01
  4.628705E-01
  4.651506E-01
  4.718014E-01
  4.759696E-01
  4.816456E-01
  4.806353E-01
  4.790582E-01
  4.731149E-01
  4.720516E-01
  4.712179E-01
  4.754378E-01
  4.756443E-01
  4.759547E-01
  4.708745E-01
  4.693171E-01
  4.677997E-01
  4.727634E-01
  4.758173E-01
  4.798499E-01
  4.768683E-01
  4.737790E-01
  4.667468E-01
  4.639817E-01
  4.602598E-01
  4.615362E-01
  4.612325E-01
  4.646426E-01
  4.645959E-01
  4.660298E-01
  4.625897E-01
  4.616096E-01
  4.591544E-01
  4.626670E-01
  4.653553E-01
  4.708590E-01
  4.708269E-01
  4.711765E-01
  4.607287E-01
  4.615683E-01
  4.658033E-01
  4.688245E-01
  4.720113E-01
  4.718095E-01
  4.719853E-01
  4.709239E-01
  4.725226E-01
  4.734351E-01
  4.752696E-01
  4.735442E-01
  4.709985E-01
  4.661650E-01
  4.645752E-01
  4.652221E-01
  4.712734E-01
  4.777788E-01
  4.842561E-01
  4.844067E-01
  4.802296E-01
  4.706660E-01
  4.622980E-01
  4.553357E-01
  4.543959E-01
  4.564154E-01
  4.627707E-01
  4.680605E-01
  4.731080E-01
  4.739706E-01
  4.742301E-01
  4.723943E-01
  4.730027E-01
  4.739310E-01
  4.779210E-01
  4.805102E-01
  4.826422E-01
  4.798524E-01
  4.753648E-01
  4.681009E-01
  4.637108E-01
  4.611731E-01
  4.637245E-01
  4.669119E-01
  4.713844E-01
  4.723330E-01
  4.724751E-01
  4.700179E-01
  4.694732E-01
  4.684930E-01
  4.695697E-01
  4.687470E-01
  4.685211E-01
  4.661881E-01
  4.655211E-01
  4.642439E-01
  4.656337E-01
  4.664613E-01
  4.690260E-01
  4.694145E-01
  4.698328E-01
  4.670213E-01
  4.645868E-01
  4.609767E-01
  4.610214E-01
  4.577556E-01
  4.619185E-01
  4.664742E-01
  4.741188E-01
  4.760411E-01
  4.774878E-01
  4.743577E-01
  4.750888E-01
  4.748639E-01
  4.783323E-01
  4.770545E-01
  4.753331E-01
  4.681573E-01
  4.645105E-01
  4.619195E-01
  4.676878E-01
  4.741458E-01
  4.826048E-01
  4.825211E-01
  4.784880E-01
  4.675793E-01
  4.608130E-01
  4.561841E-01
  4.602449E-01
  4.650714E-01
  4.731569E-01
  4.759614E-01
  4.787313E-01
  4.767041E-01
  4.772630E-01
  4.749906E-01
  4.753996E-01
  4.724081E-01
  4.725809E-01
  4.709831E-01
  4.735563E-01
  4.730904E-01
  4.737453E-01
  4.690191E-01
  4.660443E-01
  4.612043E-01
  4.619742E-01
  4.624006E-01
  4.667329E-01
  4.673911E-01
  4.697118E-01
  4.685228E-01
  4.705739E-01
  4.700715E-01
  4.723513E-01
  4.712180E-01
  4.729459E-01
  4.721798E-01
  4.746335E-01
  4.734522E-01
  4.737742E-01
  4.702046E-01
  4.702025E-01
  4.690545E-01
  4.720683E-01
  4.712369E-01
  4.705686E-01
  4.643771E-01
  4.524057E-01
  4.536160E-01
  4.592535E-01
  4.658094E-01
  4.731936E-01
  4.774815E-01
  4.800241E-01
  4.794894E-01
  4.792032E-01
  4.778067E-01
  4.769979E-01
  4.739044E-01
  4.703736E-01
  4.654609E-01
  4.631504E-01
  4.629947E-01
  4.671962E-01
  4.721763E-01
  4.771651E-01
  4.774160E-01
  4.741153E-01
  4.668932E-01
  4.610339E-01
  4.576099E-01
  4.602965E-01
  4.665837E-01
  4.757117E-01
  4.815796E-01
  4.830746E-01
  4.778820E-01
  4.708229E-01
  4.638639E-01
  4.620373E-01
  4.639909E-01
  4.700189E-01
  4.748046E-01
  4.772361E-01
  4.740095E-01
  4.684585E-01
  4.613958E-01
  4.575017E-01
  4.558691E-01
  4.579003E-01
  4.600297E-01
  4.629607E-01
  4.643636E-01
  4.668666E-01
  4.690693E-01
  4.727790E-01
  4.747683E-01
  4.757761E-01
  4.734868E-01
  4.711147E-01
  4.685568E-01
  4.693635E-01
  4.717137E-01
  4.764667E-01
  4.796193E-01
  4.813935E-01
  4.788286E-01
  4.742053E-01
  4.666686E-01
  4.600080E-01
  4.540778E-01
  4.554462E-01
  4.550507E-01
  4.573168E-01
  4.648997E-01
  4.709489E-01
  4.760754E-01
  4.752833E-01
  4.738710E-01
  4.707187E-01
  4.713282E-01
  4.713704E-01
  4.725678E-01
  4.693758E-01
  4.658306E-01
  4.604206E-01
  4.598260E-01
  4.618376E-01
  4.691395E-01
  4.744140E-01
  4.775742E-01
  4.732808E-01
  4.674629E-01
  4.605827E-01
  4.600830E-01
  4.632436E-01
  4.719729E-01
  4.787661E-01
  4.838635E-01
  4.820022E-01
  4.783546E-01
  4.717851E-01
  4.681763E-01
  4.643219E-01
  4.637339E-01
  4.623724E-01
  4.639356E-01
  4.642897E-01
  4.663642E-01
  4.653945E-01
  4.648660E-01
  4.616888E-01
  4.609157E-01
  4.597196E-01
  4.619257E-01
  4.630906E-01
  4.663388E-01
  4.676605E-01
  4.707961E-01
  4.714587E-01
  4.725859E-01
  4.699718E-01
  4.683652E-01
  4.659704E-01
  4.682629E-01
  4.714607E-01
  4.774966E-01
  4.800868E-01
  4.817326E-01
  4.791114E-01
  4.774737E-01
  4.737521E-01
  4.713420E-01
  4.657198E-01
  4.610538E-01
  4.528314E-01
  4.566940E-01
  4.586423E-01
  4.653904E-01
  4.679820E-01
  4.729720E-01
  4.719613E-01
  4.730775E-01
  4.694440E-01
  4.696078E-01
  4.659670E-01
  4.660259E-01
  4.619304E-01
  4.619473E-01
  4.593347E-01
  4.626257E-01
  4.641797E-01
  4.708550E-01
  4.731954E-01
  4.770433E-01
  4.733923E-01
  4.705363E-01
  4.628028E-01
  4.608093E-01
  4.591241E-01
  4.659046E-01
  4.713572E-01
  4.792948E-01
  4.782854E-01
  4.753511E-01
  4.652924E-01
  4.601684E-01
  4.555230E-01
  4.597081E-01
  4.630137E-01
  4.697554E-01
  4.693640E-01
  4.690358E-01
  4.627297E-01
  4.608056E-01
  4.573204E-01
  4.601904E-01
  4.606519E-01
  4.650956E-01
  4.650693E-01
  4.684666E-01
  4.680051E-01
  4.715111E-01
  4.705093E-01
  4.717899E-01
  4.671909E-01
  4.653493E-01
  4.603871E-01
  4.619606E-01
  4.632909E-01
  4.714347E-01
  4.764431E-01
  4.833110E-01
  4.820930E-01
  4.802511E-01
  4.713578E-01
  4.655619E-01
  4.572569E-01
  4.554654E-01
  4.629394E-01
  4.634337E-01
  4.618096E-01
  4.658683E-01
  4.666787E-01
  4.700622E-01
  4.674195E-01
  4.670804E-01
  4.630002E-01
  4.640535E-01
  4.625308E-01
  4.649319E-01
  4.625285E-01
  4.629440E-01
  4.598178E-01
  4.625280E-01
  4.644914E-01
  4.726357E-01
  4.768226E-01
  4.816997E-01
  4.777987E-01
  4.736971E-01
  4.646792E-01
  4.617294E-01
  4.590390E-01
  4.637849E-01
  4.662222E-01
  4.714344E-01
  4.702761E-01
  4.707461E-01
  4.665922E-01
  4.666641E-01
  4.635298E-01
  4.644406E-01
  4.616088E-01
  4.630085E-01
  4.614655E-01
  4.646015E-01
  4.641517E-01
  4.670293E-01
  4.654125E-01
  4.674481E-01
  4.661753E-01
  4.694216E-01
  4.690419E-01
  4.719540E-01
  4.699870E-01
  4.707031E-01
  4.665198E-01
  4.653843E-01
  4.603776E-01
  4.604075E-01
  4.591585E-01
  4.646056E-01
  4.679534E-01
  4.744647E-01
  4.742755E-01
  4.745810E-01
  4.691716E-01
  4.680225E-01
  4.648518E-01
  4.670075E-01
  4.654307E-01
  4.665838E-01
  4.664079E-01
  4.693279E-01
  4.676300E-01
  4.679285E-01
  4.660599E-01
  4.679673E-01
  4.676565E-01
  4.696027E-01
  4.675622E-01
  4.669041E-01
  4.627706E-01
  4.616447E-01
  4.591069E-01
  4.612446E-01
  4.626470E-01
  4.681467E-01
  4.714009E-01
  4.771244E-01
  4.792204E-01
  4.823866E-01
  4.800015E-01
  4.768931E-01
  4.681739E-01
  4.615679E-01
  4.545499E-01
  4.545375E-01
  4.559285E-01
  4.617057E-01
  4.632448E-01
  4.642778E-01
  4.603081E-01
  4.595654E-01
  4.589963E-01
  4.643143E-01
  4.681124E-01
  4.729909E-01
  4.716554E-01
  4.699985E-01
  4.646921E-01
  4.635097E-01
  4.621448E-01
  4.657317E-01
  4.675530E-01
  4.716367E-01
  4.715242E-01
  4.724308E-01
  4.691990E-01
  4.679628E-01
  4.639413E-01
  4.631925E-01
  4.606959E-01
  4.620827E-01
  4.617937E-01
  4.648578E-01
  4.652845E-01
  4.680094E-01
  4.670764E-01
  4.675425E-01
  4.638147E-01
  4.619686E-01
  4.579644E-01
  4.587486E-01
  4.594228E-01
  4.644300E-01
  4.799957E-01
  4.782179E-01
  4.728610E-01
  4.692695E-01
  4.663636E-01
  4.664940E-01
  4.660646E-01
  4.667056E-01
  4.655765E-01
  4.654138E-01
  4.639821E-01
  4.640372E-01
  4.632276E-01
  4.643543E-01
  4.652114E-01
  4.685770E-01
  4.718559E-01
  4.770361E-01
  4.804155E-01
  4.830615E-01
  4.811513E-01
  4.770436E-01
  4.693686E-01
  4.628349E-01
  4.568793E-01
  4.548949E-01
  4.540151E-01
  4.558062E-01
  4.570145E-01
  4.600494E-01
  4.625457E-01
  4.667788E-01
  4.692360E-01
  4.712997E-01
  4.700052E-01
  4.686871E-01
  4.662576E-01
  4.662989E-01
  4.662171E-01
  4.678045E-01
  4.680073E-01
  4.695690E-01
  4.703820E-01
  4.727980E-01
  4.731620E-01
  4.727500E-01
  4.686392E-01
  4.643855E-01
  4.592908E-01
  4.576538E-01
  4.579306E-01
  4.625092E-01
  4.674968E-01
  4.730880E-01
  4.742325E-01
  4.720298E-01
  4.644703E-01
  4.566756E-01
  4.496091E-01
  4.486232E-01
  4.521540E-01
  4.613505E-01
  4.704785E-01
  4.783431E-01
  4.823660E-01
  4.821872E-01
  4.771776E-01
  4.703424E-01
  4.656576E-01
  4.644850E-01
  4.665040E-01
  4.690536E-01
  4.701576E-01
  4.684403E-01
  4.651373E-01
  4.619420E-01
  4.611923E-01
  4.632337E-01
  4.675200E-01
  4.716895E-01
  4.744226E-01
  4.751090E-01
  4.752572E-01
  4.755820E-01
  4.761377E-01
  4.748863E-01
  4.707609E-01
  4.638190E-01
  4.568627E-01
  4.522920E-01
  4.517041E-01
  4.537278E-01
  4.565063E-01
  4.581037E-01
  4.592372E-01
  4.612502E-01
  4.657609E-01
  4.716937E-01
  4.769524E-01
  4.785191E-01
  4.758654E-01
  4.700819E-01
  4.643789E-01
  4.608697E-01
  4.609625E-01
  4.637735E-01
  4.680792E-01
  4.714550E-01
  4.725147E-01
  4.701527E-01
  4.655044E-01
  4.601703E-01
  4.568377E-01
  4.567702E-01
  4.605433E-01
  4.663353E-01
  4.718414E-01
  4.740223E-01
  4.721155E-01
  4.666958E-01
  4.603611E-01
  4.547220E-01
  4.511930E-01
  4.499782E-01
  4.521895E-01
  4.580685E-01
  4.672334E-01
  4.764739E-01
  4.896814E-01
  4.841349E-01
  4.776907E-01
  4.686790E-01
  4.649640E-01
  4.617165E-01
  4.632084E-01
  4.627099E-01
  4.645005E-01
  4.630345E-01
  4.640211E-01
  4.627907E-01
  4.650368E-01
  4.653280E-01
  4.683052E-01
  4.678951E-01
  4.691854E-01
  4.673552E-01
  4.685732E-01
  4.679706E-01
  4.704356E-01
  4.696187E-01
  4.699644E-01
  4.661231E-01
  4.642586E-01
  4.600678E-01
  4.594517E-01
  4.573589E-01
  4.593324E-01
  4.605213E-01
  4.663465E-01
  4.706638E-01
  4.768715E-01
  4.775322E-01
  4.771260E-01
  4.713555E-01
  4.678922E-01
  4.633068E-01
  4.633893E-01
  4.622496E-01
  4.646028E-01
  4.651657E-01
  4.692315E-01
  4.705704E-01
  4.726885E-01
  4.687459E-01
  4.643735E-01
  4.565004E-01
  4.533938E-01
  4.519854E-01
  4.579508E-01
  4.645310E-01
  4.739883E-01
  4.775999E-01
  4.785399E-01
  4.714930E-01
  4.640213E-01
  4.541564E-01
  4.503882E-01
  4.495186E-01
  4.571441E-01
  4.664127E-01
  4.792522E-01
  4.862088E-01
  4.819170E-01
  4.781265E-01
  4.761837E-01
  4.664035E-01
  4.639993E-01
  4.588046E-01
  4.625180E-01
  4.613352E-01
  4.652015E-01
  4.612656E-01
  4.623491E-01
  4.582997E-01
  4.625089E-01
  4.628573E-01
  4.694664E-01
  4.677785E-01
  4.686135E-01
  4.611326E-01
  4.603484E-01
  4.569103E-01
  4.630666E-01
  4.646555E-01
  4.706142E-01
  4.673107E-01
  4.677918E-01
  4.623686E-01
  4.647169E-01
  4.626161E-01
  4.667148E-01
  4.641342E-01
  4.675458E-01
  4.664065E-01
  4.733869E-01
  4.751033E-01
  4.810604E-01
  4.769327E-01
  4.747178E-01
  4.643666E-01
  4.609364E-01
  4.548428E-01
  4.588590E-01
  4.602489E-01
  4.688929E-01
  4.700493E-01
  4.735600E-01
  4.667264E-01
  4.632123E-01
  4.539332E-01
  4.536726E-01
  4.519839E-01
  4.602017E-01
  4.641163E-01
  4.726411E-01
  4.715554E-01
  4.730186E-01
  4.669320E-01
  4.676173E-01
  4.638110E-01
  4.667957E-01
  4.636917E-01
  4.669043E-01
  4.657903E-01
  4.730800E-01
  4.753803E-01
  4.794105E-01
  4.721316E-01
  4.726656E-01
  4.637804E-01
  4.647944E-01
  4.576654E-01
  4.604787E-01
  4.547609E-01
  4.587520E-01
  4.544882E-01
  4.604901E-01
  4.585575E-01
  4.664140E-01
  4.646340E-01
  4.701570E-01
  4.637565E-01
  4.643344E-01
  4.553335E-01
  4.571376E-01
  4.528535E-01
  4.605540E-01
  4.607821E-01
  4.700872E-01
  4.688516E-01
  4.751288E-01
  4.707518E-01
  4.745773E-01
  4.687004E-01
  4.724078E-01
  4.684053E-01
  4.756408E-01
  4.748392E-01
  4.822253E-01
  4.770543E-01
  4.772587E-01
  4.660313E-01
  4.646808E-01
  4.569160E-01
  4.612895E-01
  4.586560E-01
  4.663352E-01
  4.656664E-01
  4.744393E-01
  4.728134E-01
  4.773113E-01
  4.684533E-01
  4.659083E-01
  4.541896E-01
  4.544485E-01
  4.499899E-01
  4.584943E-01
  4.599862E-01
  4.704911E-01
  4.700734E-01
  4.767493E-01
  4.726192E-01
  4.769126E-01
  4.716919E-01
  4.756575E-01
  4.706282E-01
  4.755415E-01
  4.722307E-01
  4.786876E-01
  4.753192E-01
  4.667769E-01
  4.650241E-01
  4.707395E-01
  4.645313E-01
  4.664943E-01
  4.595134E-01
  4.631368E-01
  4.582201E-01
  4.625431E-01
  4.569756E-01
  4.608419E-01
  4.566771E-01
  4.638925E-01
  4.630586E-01
  4.708461E-01
  4.661256E-01
  4.670662E-01
  4.566166E-01
  4.567924E-01
  4.515838E-01
  4.599128E-01
  4.610750E-01
  4.708478E-01
  4.687137E-01
  4.740171E-01
  4.695247E-01
  4.751225E-01
  4.714009E-01
  4.760405E-01
  4.697521E-01
  4.725336E-01
  4.672161E-01
  4.733233E-01
  4.708695E-01
  4.766215E-01
  4.700281E-01
  4.700766E-01
  4.597794E-01
  4.604672E-01
  4.554286E-01
  4.638095E-01
  4.657063E-01
  4.773171E-01
  4.767111E-01
  4.808374E-01
  4.709164E-01
  4.683596E-01
  4.575312E-01
  4.594014E-01