# vtk DataFile Version 2.0
title
ASCII
DATASET STRUCTURED_GRID
DIMENSIONS   64   64    1
POINTS   4096  float
  0.000000E+00  0.000000E+00  0.000000E+00
  0.000000E+00  3.906250E-01  0.000000E+00
  0.000000E+00  7.812500E-01  0.000000E+00
  0.000000E+00  1.171875E+00  0.000000E+00
  0.000000E+00  1.562500E+00  0.000000E+00
  0.000000E+00  1.953125E+00  0.000000E+00
  0.000000E+00  2.343750E+00  0.000000E+00
  0.000000E+00  2.734375E+00  0.000000E+00
  0.000000E+00  3.125000E+00  0.000000E+00
  0.000000E+00  3.515625E+00  0.000000E+00
  0.000000E+00  3.906250E+00  0.000000E+00
  0.000000E+00  4.296875E+00  0.000000E+00
  0.000000E+00  4.687500E+00  0.000000E+00
  0.000000E+00  5.078125E+00  0.000000E+00
  0.000000E+00  5.468750E+00  0.000000E+00
  0.000000E+00  5.859375E+00  0.000000E+00
  0.000000E+00  6.250000E+00  0.000000E+00
  0.000000E+00  6.640625E+00  0.000000E+00
  0.000000E+00  7.031250E+00  0.000000E+00
  0.000000E+00  7.421875E+00  0.000000E+00
  0.000000E+00  7.812500E+00  0.000000E+00
  0.000000E+00  8.203125E+00  0.000000E+00
  0.000000E+00  8.593750E+00  0.000000E+00
  0.000000E+00  8.984375E+00  0.000000E+00
  0.000000E+00  9.375000E+00  0.000000E+00
  0.000000E+00  9.765625E+00  0.000000E+00
  0.000000E+00  1.015625E+01  0.000000E+00
  0.000000E+00  1.054688E+01  0.000000E+00
  0.000000E+00  1.093750E+01  0.000000E+00
  0.000000E+00  1.132812E+01  0.000000E+00
  0.000000E+00  1.171875E+01  0.000000E+00
  0.000000E+00  1.210938E+01  0.000000E+00
  0.000000E+00  1.250000E+01  0.000000E+00
  0.000000E+00  1.289062E+01  0.000000E+00
  0.000000E+00  1.328125E+01  0.000000E+00
  0.000000E+00  1.367188E+01  0.000000E+00
  0.000000E+00  1.406250E+01  0.000000E+00
  0.000000E+00  1.445312E+01  0.000000E+00
  0.000000E+00  1.484375E+01  0.000000E+00
  0.000000E+00  1.523438E+01  0.000000E+00
  0.000000E+00  1.562500E+01  0.000000E+00
  0.000000E+00  1.601562E+01  0.000000E+00
  0.000000E+00  1.640625E+01  0.000000E+00
  0.000000E+00  1.679688E+01  0.000000E+00
  0.000000E+00  1.718750E+01  0.000000E+00
  0.000000E+00  1.757812E+01  0.000000E+00
  0.000000E+00  1.796875E+01  0.000000E+00
  0.000000E+00  1.835938E+01  0.000000E+00
  0.000000E+00  1.875000E+01  0.000000E+00
  0.000000E+00  1.914062E+01  0.000000E+00
  0.000000E+00  1.953125E+01  0.000000E+00
  0.000000E+00  1.992188E+01  0.000000E+00
  0.000000E+00  2.031250E+01  0.000000E+00
  0.000000E+00  2.070312E+01  0.000000E+00
  0.000000E+00  2.109375E+01  0.000000E+00
  0.000000E+00  2.148438E+01  0.000000E+00
  0.000000E+00  2.187500E+01  0.000000E+00
  0.000000E+00  2.226562E+01  0.000000E+00
  0.000000E+00  2.265625E+01  0.000000E+00
  0.000000E+00  2.304688E+01  0.000000E+00
  0.000000E+00  2.343750E+01  0.000000E+00
  0.000000E+00  2.382812E+01  0.000000E+00
  0.000000E+00  2.421875E+01  0.000000E+00
  0.000000E+00  2.460938E+01  0.000000E+00
  3.906250E-01  0.000000E+00  0.000000E+00
  3.906250E-01  3.906250E-01  0.000000E+00
  3.906250E-01  7.812500E-01  0.000000E+00
  3.906250E-01  1.171875E+00  0.000000E+00
  3.906250E-01  1.562500E+00  0.000000E+00
  3.906250E-01  1.953125E+00  0.000000E+00
  3.906250E-01  2.343750E+00  0.000000E+00
  3.906250E-01  2.734375E+00  0.000000E+00
  3.906250E-01  3.125000E+00  0.000000E+00
  3.906250E-01  3.515625E+00  0.000000E+00
  3.906250E-01  3.906250E+00  0.000000E+00
  3.906250E-01  4.296875E+00  0.000000E+00
  3.906250E-01  4.687500E+00  0.000000E+00
  3.906250E-01  5.078125E+00  0.000000E+00
  3.906250E-01  5.468750E+00  0.000000E+00
  3.906250E-01  5.859375E+00  0.000000E+00
  3.906250E-01  6.250000E+00  0.000000E+00
  3.906250E-01  6.640625E+00  0.000000E+00
  3.906250E-01  7.031250E+00  0.000000E+00
  3.906250E-01  7.421875E+00  0.000000E+00
  3.906250E-01  7.812500E+00  0.000000E+00
  3.906250E-01  8.203125E+00  0.000000E+00
  3.906250E-01  8.593750E+00  0.000000E+00
  3.906250E-01  8.984375E+00  0.000000E+00
  3.906250E-01  9.375000E+00  0.000000E+00
  3.906250E-01  9.765625E+00  0.000000E+00
  3.906250E-01  1.015625E+01  0.000000E+00
  3.906250E-01  1.054688E+01  0.000000E+00
  3.906250E-01  1.093750E+01  0.000000E+00
  3.906250E-01  1.132812E+01  0.000000E+00
  3.906250E-01  1.171875E+01  0.000000E+00
  3.906250E-01  1.210938E+01  0.000000E+00
  3.906250E-01  1.250000E+01  0.000000E+00
  3.906250E-01  1.289062E+01  0.000000E+00
  3.906250E-01  1.328125E+01  0.000000E+00
  3.906250E-01  1.367188E+01  0.000000E+00
  3.906250E-01  1.406250E+01  0.000000E+00
  3.906250E-01  1.445312E+01  0.000000E+00
  3.906250E-01  1.484375E+01  0.000000E+00
  3.906250E-01  1.523438E+01  0.000000E+00
  3.906250E-01  1.562500E+01  0.000000E+00
  3.906250E-01  1.601562E+01  0.000000E+00
  3.906250E-01  1.640625E+01  0.000000E+00
  3.906250E-01  1.679688E+01  0.000000E+00
  3.906250E-01  1.718750E+01  0.000000E+00
  3.906250E-01  1.757812E+01  0.000000E+00
  3.906250E-01  1.796875E+01  0.000000E+00
  3.906250E-01  1.835938E+01  0.000000E+00
  3.906250E-01  1.875000E+01  0.000000E+00
  3.906250E-01  1.914062E+01  0.000000E+00
  3.906250E-01  1.953125E+01  0.000000E+00
  3.906250E-01  1.992188E+01  0.000000E+00
  3.906250E-01  2.031250E+01  0.000000E+00
  3.906250E-01  2.070312E+01  0.000000E+00
  3.906250E-01  2.109375E+01  0.000000E+00
  3.906250E-01  2.148438E+01  0.000000E+00
  3.906250E-01  2.187500E+01  0.000000E+00
  3.906250E-01  2.226562E+01  0.000000E+00
  3.906250E-01  2.265625E+01  0.000000E+00
  3.906250E-01  2.304688E+01  0.000000E+00
  3.906250E-01  2.343750E+01  0.000000E+00
  3.906250E-01  2.382812E+01  0.000000E+00
  3.906250E-01  2.421875E+01  0.000000E+00
  3.906250E-01  2.460938E+01  0.000000E+00
  7.812500E-01  0.000000E+00  0.000000E+00
  7.812500E-01  3.906250E-01  0.000000E+00
  7.812500E-01  7.812500E-01  0.000000E+00
  7.812500E-01  1.171875E+00  0.000000E+00
  7.812500E-01  1.562500E+00  0.000000E+00
  7.812500E-01  1.953125E+00  0.000000E+00
  7.812500E-01  2.343750E+00  0.000000E+00
  7.812500E-01  2.734375E+00  0.000000E+00
  7.812500E-01  3.125000E+00  0.000000E+00
  7.812500E-01  3.515625E+00  0.000000E+00
  7.812500E-01  3.906250E+00  0.000000E+00
  7.812500E-01  4.296875E+00  0.000000E+00
  7.812500E-01  4.687500E+00  0.000000E+00
  7.812500E-01  5.078125E+00  0.000000E+00
  7.812500E-01  5.468750E+00  0.000000E+00
  7.812500E-01  5.859375E+00  0.000000E+00
  7.812500E-01  6.250000E+00  0.000000E+00
  7.812500E-01  6.640625E+00  0.000000E+00
  7.812500E-01  7.031250E+00  0.000000E+00
  7.812500E-01  7.421875E+00  0.000000E+00
  7.812500E-01  7.812500E+00  0.000000E+00
  7.812500E-01  8.203125E+00  0.000000E+00
  7.812500E-01  8.593750E+00  0.000000E+00
  7.812500E-01  8.984375E+00  0.000000E+00
  7.812500E-01  9.375000E+00  0.000000E+00
  7.812500E-01  9.765625E+00  0.000000E+00
  7.812500E-01  1.015625E+01  0.000000E+00
  7.812500E-01  1.054688E+01  0.000000E+00
  7.812500E-01  1.093750E+01  0.000000E+00
  7.812500E-01  1.132812E+01  0.000000E+00
  7.812500E-01  1.171875E+01  0.000000E+00
  7.812500E-01  1.210938E+01  0.000000E+00
  7.812500E-01  1.250000E+01  0.000000E+00
  7.812500E-01  1.289062E+01  0.000000E+00
  7.812500E-01  1.328125E+01  0.000000E+00
  7.812500E-01  1.367188E+01  0.000000E+00
  7.812500E-01  1.406250E+01  0.000000E+00
  7.812500E-01  1.445312E+01  0.000000E+00
  7.812500E-01  1.484375E+01  0.000000E+00
  7.812500E-01  1.523438E+01  0.000000E+00
  7.812500E-01  1.562500E+01  0.000000E+00
  7.812500E-01  1.601562E+01  0.000000E+00
  7.812500E-01  1.640625E+01  0.000000E+00
  7.812500E-01  1.679688E+01  0.000000E+00
  7.812500E-01  1.718750E+01  0.000000E+00
  7.812500E-01  1.757812E+01  0.000000E+00
  7.812500E-01  1.796875E+01  0.000000E+00
  7.812500E-01  1.835938E+01  0.000000E+00
  7.812500E-01  1.875000E+01  0.000000E+00
  7.812500E-01  1.914062E+01  0.000000E+00
  7.812500E-01  1.953125E+01  0.000000E+00
  7.812500E-01  1.992188E+01  0.000000E+00
  7.812500E-01  2.031250E+01  0.000000E+00
  7.812500E-01  2.070312E+01  0.000000E+00
  7.812500E-01  2.109375E+01  0.000000E+00
  7.812500E-01  2.148438E+01  0.000000E+00
  7.812500E-01  2.187500E+01  0.000000E+00
  7.812500E-01  2.226562E+01  0.000000E+00
  7.812500E-01  2.265625E+01  0.000000E+00
  7.812500E-01  2.304688E+01  0.000000E+00
  7.812500E-01  2.343750E+01  0.000000E+00
  7.812500E-01  2.382812E+01  0.000000E+00
  7.812500E-01  2.421875E+01  0.000000E+00
  7.812500E-01  2.460938E+01  0.000000E+00
  1.171875E+00  0.000000E+00  0.000000E+00
  1.171875E+00  3.906250E-01  0.000000E+00
  1.171875E+00  7.812500E-01  0.000000E+00
  1.171875E+00  1.171875E+00  0.000000E+00
  1.171875E+00  1.562500E+00  0.000000E+00
  1.171875E+00  1.953125E+00  0.000000E+00
  1.171875E+00  2.343750E+00  0.000000E+00
  1.171875E+00  2.734375E+00  0.000000E+00
  1.171875E+00  3.125000E+00  0.000000E+00
  1.171875E+00  3.515625E+00  0.000000E+00
  1.171875E+00  3.906250E+00  0.000000E+00
  1.171875E+00  4.296875E+00  0.000000E+00
  1.171875E+00  4.687500E+00  0.000000E+00
  1.171875E+00  5.078125E+00  0.000000E+00
  1.171875E+00  5.468750E+00  0.000000E+00
  1.171875E+00  5.859375E+00  0.000000E+00
  1.171875E+00  6.250000E+00  0.000000E+00
  1.171875E+00  6.640625E+00  0.000000E+00
  1.171875E+00  7.031250E+00  0.000000E+00
  1.171875E+00  7.421875E+00  0.000000E+00
  1.171875E+00  7.812500E+00  0.000000E+00
  1.171875E+00  8.203125E+00  0.000000E+00
  1.171875E+00  8.593750E+00  0.000000E+00
  1.171875E+00  8.984375E+00  0.000000E+00
  1.171875E+00  9.375000E+00  0.000000E+00
  1.171875E+00  9.765625E+00  0.000000E+00
  1.171875E+00  1.015625E+01  0.000000E+00
  1.171875E+00  1.054688E+01  0.000000E+00
  1.171875E+00  1.093750E+01  0.000000E+00
  1.171875E+00  1.132812E+01  0.000000E+00
  1.171875E+00  1.171875E+01  0.000000E+00
  1.171875E+00  1.210938E+01  0.000000E+00
  1.171875E+00  1.250000E+01  0.000000E+00
  1.171875E+00  1.289062E+01  0.000000E+00
  1.171875E+00  1.328125E+01  0.000000E+00
  1.171875E+00  1.367188E+01  0.000000E+00
  1.171875E+00  1.406250E+01  0.000000E+00
  1.171875E+00  1.445312E+01  0.000000E+00
[...]
POINT_DATA   4096
SCALARS CON  float  1
LOOKUP_TABLE default
  4.714722E-01
  4.723399E-01
  4.790428E-01
  4.752807E-01
  4.756479E-01
  4.683395E-01
  4.704850E-01
  4.686271E-01
  4.752256E-01
  4.732049E-01
  4.753711E-01
  4.681804E-01
  4.681826E-01
  4.631398E-01
  4.679629E-01
  4.676434E-01
  4.746791E-01
  4.729854E-01
  4.759925E-01
  4.698097E-01
  4.701154E-01
  4.637825E-01
  4.652787E-01
  4.599534E-01
  4.619114E-01
  4.578121E-01
  4.630377E-01
  4.636801E-01
  4.723866E-01
  4.722337E-01
  4.758207E-01
  4.695982E-01
  4.705747E-01
  4.666848E-01
  4.721073E-01
  4.704217E-01
  4.737249E-01
  4.674009E-01
  4.673076E-01
  4.610524E-01
  4.635169E-01
  4.597844E-01
  4.629182E-01
  4.582710E-01
  4.607660E-01
  4.578503E-01
  4.650945E-01
  4.682093E-01
  4.789580E-01
  4.790354E-01
  4.801135E-01
  4.689073E-01
  4.644569E-01
  4.577236E-01
  4.653152E-01
  4.714060E-01
  4.852190E-01
  4.870616E-01
  4.893031E-01
  4.794145E-01
  4.755649E-01
  4.663680E-01
  4.673923E-01
  4.645521E-01
  4.718852E-01
  4.744632E-01
  4.827149E-01
  4.813564E-01
  4.807705E-01
  4.711755E-01
  4.685280E-01
  4.639198E-01
  4.689918E-01
  4.696404E-01
  4.751154E-01
  4.723738E-01
  4.735476E-01
  4.679590E-01
  4.687764E-01
  4.654171E-01
  4.700319E-01
  4.698701E-01
  4.747379E-01
  4.711940E-01
  4.712056E-01
  4.647387E-01
  4.654768E-01
  4.622543E-01
  4.659796E-01
  4.638115E-01
  4.672441E-01
  4.651798E-01
  4.699553E-01
  4.694407E-01
  4.742785E-01
  4.716255E-01
  4.732035E-01
  4.679280E-01
  4.685581E-01
  4.640406E-01
  4.664732E-01
  4.639280E-01
  4.674867E-01
  4.643829E-01
  4.656944E-01
  4.598745E-01
  4.596616E-01
  4.544921E-01
  4.568717E-01
  4.557496E-01
  4.632559E-01
  4.673254E-01
  4.774792E-01
  4.782031E-01
  4.789069E-01
  4.691699E-01
  4.659066E-01
  4.624669E-01
  4.720518E-01
  4.796088E-01
  4.908110E-01
  4.890895E-01
  4.866032E-01
  4.755139E-01
  4.718761E-01
  4.653943E-01
  4.673330E-01
  4.654865E-01
  4.638908E-01
  4.734671E-01
  4.831793E-01
  4.846659E-01
  4.810509E-01
  4.718313E-01
  4.660970E-01
  4.630153E-01
  4.663065E-01
  4.695443E-01
  4.739311E-01
  4.739539E-01
  4.736549E-01
  4.702469E-01
  4.691544E-01
  4.674440E-01
  4.692063E-01
  4.697527E-01
  4.719119E-01
  4.709241E-01
  4.707946E-01
  4.682250E-01
  4.677789E-01
  4.656520E-01
  4.656666E-01
  4.639298E-01
  4.647018E-01
  4.642260E-01
  4.660446E-01
  4.653634E-01
  4.656410E-01
  4.634170E-01
  4.638620E-01
  4.638879E-01
  4.670599E-01
  4.679963E-01
  4.693549E-01
  4.670375E-01
  4.658399E-01
  4.625982E-01
  4.613573E-01
  4.579294E-01
  4.563617E-01
  4.535096E-01
  4.544220E-01
  4.560967E-01
  4.625622E-01
  4.688055E-01
  4.763393E-01
  4.782598E-01
  4.770347E-01
  4.701505E-01
  4.655954E-01
  4.635372E-01
  4.695845E-01
  4.777951E-01
  4.872274E-01
  4.890007E-01
  4.854725E-01
  4.748453E-01
  4.651683E-01
  4.560506E-01
  4.536677E-01
  4.551177E-01
  4.636218E-01
  4.741922E-01
  4.808798E-01
  4.850964E-01
  4.784855E-01
  4.701446E-01
  4.594259E-01
  4.568669E-01
  4.573306E-01
  4.649558E-01
  4.702299E-01
  4.763079E-01
  4.753937E-01
  4.740943E-01
  4.681747E-01
  4.665185E-01
  4.648052E-01
  4.691061E-01
  4.711609E-01
  4.746744E-01
  4.723868E-01
  4.716058E-01
  4.680594E-01
  4.690095E-01
  4.676742E-01
  4.688842E-01
  4.657197E-01
  4.650333E-01
  4.621074E-01
  4.641007E-01
  4.644559E-01
  4.678288E-01
  4.665048E-01
  4.663236E-01
  4.621827E-01
  4.620817E-01
  4.611235E-01
  4.652436E-01
  4.664841E-01
  4.688511E-01
  4.651643E-01
  4.627325E-01
  4.577511E-01
  4.582796E-01
  4.584507E-01
  4.634253E-01
  4.658643E-01
  4.712097E-01
  4.724156E-01
  4.744651E-01
  4.703922E-01
  4.676149E-01
  4.630585E-01
  4.659091E-01
  4.704330E-01
  4.798206E-01
  4.831004E-01
  4.834358E-01
  4.753315E-01
  4.685831E-01
  4.602548E-01
  4.578435E-01
  4.552923E-01
  4.590692E-01
  4.595566E-01
  4.728709E-01
  4.768742E-01
  4.820414E-01
  4.727085E-01
  4.671552E-01
  4.557905E-01
  4.565784E-01
  4.553394E-01
  4.645684E-01
  4.667908E-01
  4.741971E-01
  4.710251E-01
  4.727083E-01
  4.663375E-01
  4.684573E-01
  4.653152E-01
  4.712046E-01
  4.702096E-01
  4.756688E-01
  4.720741E-01
  4.742878E-01
  4.681832E-01
  4.691375E-01
  4.629557E-01
  4.646105E-01
  4.596897E-01
  4.629121E-01
  4.595872E-01
  4.639976E-01
  4.611229E-01
  4.652974E-01
  4.618866E-01
  4.658631E-01
  4.628998E-01
  4.676457E-01
  4.651257E-01
  4.695340E-01
  4.657687E-01
  4.682065E-01
  4.623160E-01
  4.636736E-01
  4.589979E-01
  4.638143E-01
  4.632942E-01
  4.707083E-01
  4.698056E-01
  4.745065E-01
  4.701329E-01
  4.717666E-01
  4.650474E-01
  4.653540E-01
  4.593669E-01
  4.631563E-01
  4.627417E-01
  4.716638E-01
  4.727240E-01
  4.780881E-01
  4.719062E-01
  4.697938E-01
  4.590784E-01
  4.567413E-01
  4.503993E-01
  4.561375E-01
  4.647344E-01
  4.733039E-01
  4.732177E-01
  4.781286E-01
  4.691061E-01
  4.651064E-01
  4.532034E-01
  4.538429E-01
  4.513621E-01
  4.612429E-01
  4.637942E-01
  4.730032E-01
  4.699978E-01
  4.721017E-01
  4.643346E-01
  4.665423E-01
  4.635900E-01
  4.721388E-01
  4.727669E-01
  4.796731E-01
  4.743141E-01
  4.747787E-01
  4.661681E-01
  4.672967E-01
  4.614131E-01
  4.646667E-01
  4.594024E-01
  4.628913E-01
  4.593699E-01
  4.665746E-01
  4.667747E-01
  4.746467E-01
  4.707659E-01
  4.718304E-01
  4.628948E-01
  4.642046E-01
  4.607622E-01
  4.688160E-01
  4.684607E-01
  4.738592E-01
  4.673856E-01
  4.683945E-01
  4.630913E-01
  4.699389E-01
  4.704662E-01
  4.784595E-01
  4.743973E-01
  4.755945E-01
  4.668777E-01
  4.670842E-01
  4.597773E-01
  4.620245E-01
  4.573569E-01
  4.632726E-01
  4.624910E-01
  4.702358E-01
  4.674662E-01
  4.706285E-01
  4.639682E-01
  4.664228E-01
  4.617095E-01
  4.661299E-01
  4.619740E-01
  4.667084E-01
  4.634957E-01
  4.703535E-01
  4.701131E-01
  4.737275E-01
  4.671690E-01
  4.653305E-01
  4.576400E-01
  4.592636E-01
  4.574507E-01
  4.642314E-01
  4.645716E-01
  4.699685E-01
  4.664943E-01
  4.682575E-01
  4.637691E-01
  4.678051E-01
  4.674799E-01
  4.749942E-01
  4.752574E-01
  4.799483E-01
  4.749945E-01
  4.742181E-01
  4.655235E-01
  4.636639E-01
  4.566832E-01
  4.584637E-01
  4.558780E-01
  4.615446E-01
  4.615655E-01
  4.683790E-01
  4.680263E-01
  4.730897E-01
  4.699991E-01
  4.725874E-01
  4.686400E-01
  4.722315E-01
  4.699430E-01
  4.740393E-01
  4.701462E-01
  4.712599E-01
  4.650480E-01
  4.666171E-01
  4.642921E-01
  4.713607E-01
  4.727877E-01
  4.791127E-01
  4.751684E-01
  4.747503E-01
  4.666331E-01
  4.660921E-01
  4.605357E-01
  4.626853E-01
  4.587529E-01
  4.618260E-01
  4.589941E-01
  4.635279E-01
  4.619339E-01
  4.669628E-01
  4.649550E-01
  4.687947E-01
  4.649667E-01
  4.668170E-01
  4.619342E-01
  4.649121E-01
  4.671138E-01
  4.678917E-01
  4.677473E-01
  4.707388E-01
  4.690668E-01
  4.680117E-01
  4.631951E-01
  4.624501E-01
  4.613819E-01
  4.654939E-01
  4.674816E-01
  4.710740E-01
  4.692825E-01
  4.683528E-01
  4.645424E-01
  4.659748E-01
  4.680459E-01
  4.753658E-01
  4.791284E-01
  4.820539E-01
  4.772760E-01
  4.722485E-01
  4.642116E-01
  4.613739E-01
  4.586855E-01
  4.609735E-01
  4.612002E-01
  4.644724E-01
  4.655142E-01
  4.707216E-01
  4.739008E-01
  4.789265E-01
  4.779438E-01
  4.764788E-01
  4.708416E-01
  4.697914E-01
  4.690553E-01
  4.732164E-01
  4.736600E-01
  4.740943E-01
  4.692449E-01
  4.676069E-01
  4.660942E-01
  4.708089E-01
  4.736347E-01
  4.770985E-01
  4.739227E-01
  4.712435E-01
  4.658694E-01
  4.651312E-01
  4.630837E-01
  4.645743E-01
  4.635349E-01
  4.658797E-01
  4.656139E-01
  4.674492E-01
  4.648501E-01
  4.642589E-01
  4.619029E-01
  4.650092E-01
  4.672524E-01
  4.719862E-01
  4.712732E-01
  4.708777E-01
  4.616619E-01
  4.626021E-01
  4.652834E-01
  4.682823E-01
  4.706354E-01
  4.714994E-01
  4.714315E-01
  4.709879E-01
  4.711578E-01
  4.717279E-01
  4.722613E-01
  4.715425E-01
  4.695721E-01
  4.670617E-01
  4.660117E-01
  4.674276E-01
  4.714140E-01
  4.760690E-01
  4.793891E-01
  4.794048E-01
  4.760964E-01
  4.703832E-01
  4.644847E-01
  4.600617E-01
  4.586444E-01
  4.601121E-01
  4.636737E-01
  4.673549E-01
  4.700726E-01
  4.712086E-01
  4.715161E-01
  4.714294E-01
  4.717528E-01
  4.726248E-01
  4.744404E-01
  4.764189E-01
  4.776035E-01
  4.764953E-01
  4.731187E-01
  4.683771E-01
  4.645294E-01
  4.629575E-01
  4.642632E-01
  4.670643E-01
  4.697489E-01
  4.705968E-01
  4.697965E-01
  4.683233E-01
  4.678122E-01
  4.683295E-01
  4.693192E-01
  4.694817E-01
  4.688329E-01
  4.676914E-01
  4.670156E-01
  4.667182E-01
  4.668343E-01
  4.669286E-01
  4.673085E-01
  4.676295E-01
  4.676931E-01
  4.666448E-01
  4.647163E-01
  4.625321E-01
  4.619980E-01
  4.603193E-01
  4.632063E-01
  4.673598E-01
  4.723999E-01
  4.740880E-01
  4.743139E-01
  4.723376E-01
  4.721369E-01
  4.723400E-01
  4.743372E-01
  4.742747E-01
  4.731023E-01
  4.690659E-01
  4.663397E-01
  4.651329E-01
  4.686442E-01
  4.734341E-01
  4.785238E-01
  4.787100E-01
  4.753749E-01
  4.683946E-01
  4.633801E-01
  4.608452E-01
  4.634364E-01
  4.673473E-01
  4.720929E-01
  4.735976E-01
  4.739817E-01
  4.725390E-01
  4.727929E-01
  4.726171E-01
  4.732208E-01
  4.718639E-01
  4.713079E-01
  4.705110E-01
  4.719099E-01
  4.722323E-01
  4.720874E-01
  4.688571E-01
  4.659462E-01
  4.632103E-01
  4.639455E-01
  4.653428E-01
  4.677000E-01
  4.675106E-01
  4.673202E-01
  4.665807E-01
  4.684918E-01
  4.702239E-01
  4.722737E-01
  4.716752E-01
  4.715199E-01
  4.711791E-01
  4.730864E-01
  4.736146E-01
  4.732571E-01
  4.699130E-01
  4.677039E-01
  4.664406E-01
  4.682798E-01
  4.690340E-01
  4.687083E-01
  4.649552E-01
  4.564900E-01
  4.580055E-01
  4.615294E-01
  4.666746E-01
  4.712739E-01
  4.745919E-01
  4.754514E-01
  4.751339E-01
  4.741893E-01
  4.740407E-01
  4.737445E-01
  4.729630E-01
  4.704601E-01
  4.675747E-01
  4.652986E-01
  4.656628E-01
  4.680996E-01
  4.719364E-01
  4.745297E-01
  4.749383E-01
  4.721509E-01
  4.678919E-01
  4.634775E-01
  4.615910E-01
  4.628090E-01
  4.674377E-01
  4.727437E-01
  4.765155E-01
  4.762104E-01
  4.728045E-01
  4.677978E-01
  4.643793E-01
  4.634904E-01
  4.659161E-01
  4.697803E-01
  4.735837E-01
  4.745288E-01
  4.723661E-01
  4.674576E-01
  4.628056E-01
  4.599291E-01
  4.601576E-01
  4.618565E-01
  4.639665E-01
  4.647424E-01
  4.650879E-01
  4.655583E-01
  4.677624E-01
  4.707326E-01
  4.735684E-01
  4.740119E-01
  4.724721E-01
  4.697105E-01
  4.683679E-01
  4.688781E-01
  4.714176E-01
  4.738423E-01
  4.754063E-01
  4.748449E-01
  4.729278E-01
  4.693897E-01
  4.653786E-01
  4.609754E-01
  4.578780E-01
  4.595277E-01
  4.598237E-01
  4.611743E-01
  4.669996E-01
  4.703049E-01
  4.734807E-01
  4.714899E-01
  4.703638E-01
  4.676477E-01
  4.690888E-01
  4.695540E-01
  4.718153E-01
  4.697309E-01
  4.678595E-01
  4.633386E-01
  4.630387E-01
  4.637473E-01
  4.693005E-01
  4.726048E-01
  4.754265E-01
  4.720261E-01
  4.683751E-01
  4.629091E-01
  4.629026E-01
  4.646549E-01
  4.712574E-01
  4.752620E-01
  4.786581E-01
  4.761757E-01
  4.738649E-01
  4.692795E-01
  4.681903E-01
  4.658959E-01
  4.663402E-01
  4.647792E-01
  4.659947E-01
  4.654128E-01
  4.669900E-01
  4.654343E-01
  4.652428E-01
  4.626767E-01
  4.633377E-01
  4.630421E-01
  4.656741E-01
  4.656631E-01
  4.672672E-01
  4.666592E-01
  4.692579E-01
  4.702258E-01
  4.725960E-01
  4.704042E-01
  4.686694E-01
  4.651155E-01
  4.665921E-01
  4.688419E-01
  4.743969E-01
  4.760159E-01
  4.771387E-01
  4.741579E-01
  4.734021E-01
  4.709559E-01
  4.706083E-01
  4.667230E-01
  4.640034E-01
  4.578335E-01
  4.609137E-01
  4.619539E-01
  4.669199E-01
  4.682175E-01
  4.715785E-01
  4.698155E-01
  4.701285E-01
  4.669347E-01
  4.678106E-01
  4.659998E-01
  4.673974E-01
  4.646888E-01
  4.648838E-01
  4.623518E-01
  4.646779E-01
  4.652650E-01
  4.700546E-01
  4.712078E-01
  4.743021E-01
  4.718302E-01
  4.705370E-01
  4.647757E-01
  4.631807E-01
  4.609940E-01
  4.655435E-01
  4.688114E-01
  4.746632E-01
  4.738228E-01
  4.725217E-01
  4.658423E-01
  4.632898E-01
  4.602019E-01
  4.635269E-01
  4.652070E-01
  4.697164E-01
  4.685840E-01
  4.682395E-01
  4.632974E-01
  4.623919E-01
  4.601080E-01
  4.630135E-01
  4.633080E-01
  4.665070E-01
  4.655928E-01
  4.678221E-01
  4.672175E-01
  4.704971E-01
  4.700388E-01
  4.713512E-01
  4.672776E-01
  4.654372E-01
  4.609568E-01
  4.621525E-01
  4.629226E-01
  4.691685E-01
  4.725023E-01
  4.777826E-01
  4.769693E-01
  4.765154E-01
  4.704337E-01
  4.669211E-01
  4.608370E-01
  4.599282E-01
  4.646180E-01
  4.649985E-01
  4.642562E-01
  4.673713E-01
  4.679949E-01
  4.698565E-01
  4.672881E-01
  4.662642E-01
  4.631263E-01
  4.640060E-01
  4.635782E-01
  4.658749E-01
  4.647166E-01
  4.651190E-01
  4.628611E-01
  4.643920E-01
  4.653931E-01
  4.706485E-01
  4.734977E-01
  4.771342E-01
  4.750507E-01
  4.726172E-01
  4.663832E-01
  4.638310E-01
  4.614522E-01
  4.644332E-01
  4.662527E-01
  4.701275E-01
  4.697235E-01
  4.703995E-01
  4.680318E-01
  4.685188E-01
  4.666031E-01
  4.669162E-01
  4.642489E-01
  4.643661E-01
  4.628914E-01
  4.650879E-01
  4.651471E-01
  4.673391E-01
  4.662286E-01
  4.674135E-01
  4.664161E-01
  4.685432E-01
  4.681979E-01
  4.699695E-01
  4.685434E-01
  4.692268E-01
  4.668757E-01
  4.664067E-01
  4.627476E-01
  4.619600E-01
  4.603513E-01
  4.638493E-01
  4.666180E-01
  4.717998E-01
  4.723419E-01
  4.729608E-01
  4.696371E-01
  4.691703E-01
  4.672289E-01
  4.685859E-01
  4.671193E-01
  4.673870E-01
  4.662864E-01
  4.679561E-01
  4.672903E-01
  4.673565E-01
  4.670154E-01
  4.683324E-01
  4.684862E-01
  4.688803E-01
  4.673845E-01
  4.664396E-01
  4.643640E-01
  4.635232E-01
  4.622892E-01
  4.632965E-01
  4.647532E-01
  4.682560E-01
  4.707726E-01
  4.736655E-01
  4.748231E-01
  4.764449E-01
  4.759537E-01
  4.744030E-01
  4.692545E-01
  4.637412E-01
  4.582767E-01
  4.571174E-01
  4.585483E-01
  4.627866E-01
  4.650614E-01
  4.658570E-01
  4.637309E-01
  4.628332E-01
  4.628286E-01
  4.658613E-01
  4.684012E-01
  4.706741E-01
  4.697233E-01
  4.682039E-01
  4.655007E-01
  4.649032E-01
  4.646572E-01
  4.663265E-01
  4.671106E-01
  4.685975E-01
  4.685833E-01
  4.691160E-01
  4.680267E-01
  4.672893E-01
  4.649830E-01
  4.637006E-01
  4.620963E-01
  4.627150E-01
  4.633987E-01
  4.655921E-01
  4.665607E-01
  4.680238E-01
  4.678565E-01
  4.680230E-01
  4.662040E-01
  4.645219E-01
  4.617083E-01
  4.611161E-01
  4.614851E-01
  4.643918E-01
  4.756661E-01
  4.737767E-01
  4.707517E-01
  4.680159E-01
  4.670695E-01
  4.669435E-01
  4.673155E-01
  4.670277E-01
  4.666518E-01
  4.658293E-01
  4.652860E-01
  4.645273E-01
  4.643859E-01
  4.646838E-01
  4.662763E-01
  4.684601E-01
  4.713546E-01
  4.738444E-01
  4.760956E-01
  4.770856E-01
  4.767972E-01
  4.741226E-01
  4.698138E-01
  4.644656E-01
  4.603646E-01
  4.581367E-01
  4.584069E-01
  4.596671E-01
  4.614636E-01
  4.628803E-01
  4.648464E-01
  4.669996E-01
  4.693352E-01
  4.701543E-01
  4.694581E-01
  4.673566E-01
  4.659696E-01
  4.657810E-01
  4.671140E-01
  4.682129E-01
  4.688094E-01
  4.685623E-01
  4.689426E-01
  4.697429E-01
  4.708023E-01
  4.702609E-01
  4.681136E-01
  4.644884E-01
  4.614954E-01
  4.599239E-01
  4.609694E-01
  4.638366E-01
  4.681508E-01
  4.717589E-01
  4.735060E-01
  4.716926E-01
  4.671733E-01
  4.610971E-01
  4.564909E-01
  4.548045E-01
  4.573633E-01
  4.627461E-01
  4.693690E-01
  4.740513E-01
  4.775891E-01
  4.768325E-01
  4.731356E-01
  4.679406E-01
  4.655057E-01
  4.652187E-01
  4.675249E-01
  4.691146E-01
  4.700737E-01
  4.684664E-01
  4.662897E-01
  4.632557E-01
  4.623442E-01
  4.631208E-01
  4.668678E-01
  4.704643E-01
  4.733763E-01
  4.733063E-01
  4.727978E-01
  4.720246E-01
  4.728977E-01
  4.724788E-01
  4.703855E-01
  4.648903E-01
  4.595306E-01
  4.555883E-01
  4.558447E-01
  4.577679E-01
  4.605000E-01
  4.610280E-01
  4.613809E-01
  4.619536E-01
  4.654685E-01
  4.696933E-01
  4.738599E-01
  4.744301E-01
  4.726064E-01
  4.683850E-01
  4.653170E-01
  4.632365E-01
  4.638145E-01
  4.650035E-01
  4.675146E-01
  4.690562E-01
  4.702883E-01
  4.690214E-01
  4.666818E-01
  4.626821E-01
  4.601797E-01
  4.593266E-01
  4.622487E-01
  4.665381E-01
  4.714269E-01
  4.730489E-01
  4.719078E-01
  4.674231E-01
  4.630403E-01
  4.587831E-01
  4.566227E-01
  4.551816E-01
  4.564843E-01
  4.598523E-01
  4.665617E-01
  4.730217E-01
  4.833920E-01
  4.791354E-01
  4.739908E-01
  4.676685E-01
  4.651219E-01
  4.633332E-01
  4.645256E-01
  4.645091E-01
  4.657410E-01
  4.648059E-01
  4.649389E-01
  4.634199E-01
  4.640271E-01
  4.640815E-01
  4.665576E-01
  4.674979E-01
  4.691790E-01
  4.682583E-01
  4.685709E-01
  4.678304E-01
  4.693285E-01
  4.690976E-01
  4.692356E-01
  4.663533E-01
  4.645188E-01
  4.618367E-01
  4.619925E-01
  4.614744E-01
  4.628475E-01
  4.630506E-01
  4.658873E-01
  4.684506E-01
  4.728496E-01
  4.740242E-01
  4.738900E-01
  4.698856E-01
  4.672185E-01
  4.644592E-01
  4.649464E-01
  4.645777E-01
  4.657594E-01
  4.656362E-01
  4.680101E-01
  4.694795E-01
  4.716357E-01
  4.695915E-01
  4.663080E-01
  4.604302E-01
  4.577280E-01
  4.568778E-01
  4.611042E-01
  4.658537E-01
  4.720164E-01
  4.742765E-01
  4.745926E-01
  4.699758E-01
  4.650265E-01
  4.586950E-01
  4.561608E-01
  4.557024E-01
  4.608181E-01
  4.674308E-01
  4.763541E-01
  4.813774E-01
  4.780755E-01
  4.752301E-01
  4.728080E-01
  4.660574E-01
  4.643281E-01
  4.616345E-01
  4.642207E-01
  4.637178E-01
  4.658822E-01
  4.633954E-01
  4.636197E-01
  4.606052E-01
  4.623526E-01
  4.624171E-01
  4.669735E-01
  4.672203E-01
  4.684602E-01
  4.638563E-01
  4.625140E-01
  4.600405E-01
  4.640937E-01
  4.659871E-01
  4.698320E-01
  4.672427E-01
  4.663628E-01
  4.627193E-01
  4.646987E-01
  4.646296E-01
  4.675750E-01
  4.655964E-01
  4.666040E-01
  4.655303E-01
  4.701485E-01
  4.722514E-01
  4.764119E-01
  4.739091E-01
  4.719282E-01
  4.652592E-01
  4.629174E-01
  4.592745E-01
  4.615262E-01
  4.622592E-01
  4.673690E-01
  4.684886E-01
  4.711375E-01
  4.675623E-01
  4.652862E-01
  4.591187E-01
  4.581160E-01
  4.567832E-01
  4.619202E-01
  4.649736E-01
  4.704498E-01
  4.696730E-01
  4.697960E-01
  4.656742E-01
  4.661944E-01
  4.648783E-01
  4.676265E-01
  4.663312E-01
  4.681167E-01
  4.673792E-01
  4.719891E-01
  4.740269E-01
  4.761233E-01
  4.708304E-01
  4.710154E-01
  4.651468E-01
  4.660110E-01
  4.612349E-01
  4.628960E-01
  4.586847E-01
  4.610742E-01
  4.580338E-01
  4.619265E-01
  4.604152E-01
  4.654904E-01
  4.642998E-01
  4.683234E-01
  4.645086E-01
  4.652004E-01
  4.591092E-01
  4.601553E-01
  4.573362E-01
  4.629405E-01
  4.635291E-01
  4.697657E-01
  4.684013E-01
  4.720763E-01
  4.692448E-01
  4.726101E-01
  4.695235E-01
  4.721838E-01
  4.688665E-01
  4.729198E-01
  4.720694E-01
  4.772210E-01
  4.739449E-01
  4.738563E-01
  4.659369E-01
  4.650323E-01
  4.603786E-01
  4.639539E-01
  4.621758E-01
  4.665523E-01
  4.651066E-01
  4.705917E-01
  4.699853E-01
  4.738571E-01
  4.684255E-01
  4.666041E-01
  4.583681E-01
  4.584605E-01
  4.556987E-01
  4.616221E-01
  4.623755E-01
  4.687755E-01
  4.678503E-01
  4.721170E-01
  4.697617E-01
  4.735434E-01
  4.711495E-01
  4.747751E-01
  4.719485E-01
  4.753151E-01
  4.727992E-01
  4.766745E-01
  4.738983E-01
  4.666925E-01
  4.652031E-01
  4.695360E-01
  4.652925E-01
  4.674556E-01
  4.627219E-01
  4.654187E-01
  4.611559E-01
  4.637948E-01
  4.593801E-01
  4.624666E-01
  4.595355E-01
  4.649243E-01
  4.641161E-01
  4.699581E-01
  4.666557E-01
  4.675830E-01
  4.596552E-01
  4.595801E-01
  4.556896E-01
  4.623840E-01
  4.636365E-01
  4.707458E-01
  4.681917E-01
  4.711375E-01
  4.674218E-01
  4.721322E-01
  4.701467E-01
  4.740427E-01
  4.691677E-01
  4.709366E-01
  4.668312E-01
  4.714488E-01
  4.694601E-01
  4.734040E-01
  4.682811E-01
  4.687783E-01
  4.620429E-01
  4.634662E-01
  4.597589E-01
  4.651803E-01
  4.651507E-01
  4.725834E-01
  4.716346E-01
  4.751504E-01
  4.687603E-01
  4.679745E-01
  4.606075E-01
  4.622826E-01