# vtk DataFile Version 2.0
title
ASCII
DATASET STRUCTURED_GRID
DIMENSIONS   64   64    1
POINTS   4096  float
  0.000000E+00  0.000000E+00  0.000000E+00
  0.000000E+00  3.906250E-01  0.000000E+00
  0.000000E+00  7.812500E-01  0.000000E+00
  0.000000E+00  1.171875E+00  0.000000E+00
  0.000000E+00  1.562500E+00  0.000000E+00
  0.000000E+00  1.953125E+00  0.000000E+00
  0.000000E+00  2.343750E+00  0.000000E+00
  0.000000E+00  2.734375E+00  0.000000E+00
  0.000000E+00  3.125000E+00  0.000000E+00
  0.000000E+00  3.515625E+00  0.000000E+00
  0.000000E+00  3.906250E+00  0.000000E+00
  0.000000E+00  4.296875E+00  0.000000E+00
  0.000000E+00  4.687500E+00  0.000000E+00
  0.000000E+00  5.078125E+00  0.000000E+00
  0.000000E+00  5.468750E+00  0.000000E+00
  0.000000E+00  5.859375E+00  0.000000E+00
  0.000000E+00  6.250000E+00  0.000000E+00
  0.000000E+00  6.640625E+00  0.000000E+00
  0.000000E+00  7.031250E+00  0.000000E+00
  0.000000E+00  7.421875E+00  0.000000E+00
  0.000000E+00  7.812500E+00  0.000000E+00
  0.000000E+00  8.203125E+00  0.000000E+00
  0.000000E+00  8.593750E+00  0.000000E+00
  0.000000E+00  8.984375E+00  0.000000E+00
  0.000000E+00  9.375000E+00  0.000000E+00
  0.000000E+00  9.765625E+00  0.000000E+00
  0.000000E+00  1.015625E+01  0.000000E+00
  0.000000E+00  1.054688E+01  0.000000E+00
  0.000000E+00  1.093750E+01  0.000000E+00
  0.000000E+00  1.132812E+01  0.000000E+00
  0.000000E+00  1.171875E+01  0.000000E+00
  0.000000E+00  1.210938E+01  0.000000E+00
  0.000000E+00  1.250000E+01  0.000000E+00
  0.000000E+00  1.289062E+01  0.000000E+00
  0.000000E+00  1.328125E+01  0.000000E+00
  0.000000E+00  1.367188E+01  0.000000E+00
  0.000000E+00  1.406250E+01  0.000000E+00
  0.000000E+00  1.445312E+01  0.000000E+00
  0.000000E+00  1.484375E+01  0.000000E+00
  0.000000E+00  1.523438E+01  0.000000E+00
  0.000000E+00  1.562500E+01  0.000000E+00
  0.000000E+00  1.601562E+01  0.000000E+00
  0.000000E+00  1.640625E+01  0.000000E+00
  0.000000E+00  1.679688E+01  0.000000E+00
  0.000000E+00  1.718750E+01  0.000000E+00
  0.000000E+00  1.757812E+01  0.000000E+00
  0.000000E+00  1.796875E+01  0.000000E+00
  0.000000E+00  1.835938E+01  0.000000E+00
  0.000000E+00  1.875000E+01  0.000000E+00
  0.000000E+00  1.914062E+01  0.000000E+00
  0.000000E+00  1.953125E+01  0.000000E+00
  0.000000E+00  1.992188E+01  0.000000E+00
  0.000000E+00  2.031250E+01  0.000000E+00
  0.000000E+00  2.070312E+01  0.000000E+00
  0.000000E+00  2.109375E+01  0.000000E+00
  0.000000E+00  2.148438E+01  0.000000E+00
  0.000000E+00  2.187500E+01  0.000000E+00
  0.000000E+00  2.226562E+01  0.000000E+00
  0.000000E+00  2.265625E+01  0.000000E+00
  0.000000E+00  2.304688E+01  0.000000E+00
  0.000000E+00  2.343750E+01  0.000000E+00
  0.000000E+00  2.382812E+01  0.000000E+00
  0.000000E+00  2.421875E+01  0.000000E+00
  0.000000E+00  2.460938E+01  0.000000E+00
  3.906250E-01  0.000000E+00  0.000000E+00
  3.906250E-01  3.906250E-01  0.000000E+00
  3.906250E-01  7.812500E-01  0.000000E+00
  3.906250E-01  1.171875E+00  0.000000E+00
  3.906250E-01  1.562500E+00  0.000000E+00
  3.906250E-01  1.953125E+00  0.000000E+00
  3.906250E-01  2.343750E+00  0.000000E+00
  3.906250E-01  2.734375E+00  0.000000E+00
  3.906250E-01  3.125000E+00  0.000000E+00
  3.906250E-01  3.515625E+00  0.000000E+00
  3.906250E-01  3.906250E+00  0.000000E+00
  3.906250E-01  4.296875E+00  0.000000E+00
  3.906250E-01  4.687500E+00  0.000000E+00
  3.906250E-01  5.078125E+00  0.000000E+00
  3.906250E-01  5.468750E+00  0.000000E+00
  3.906250E-01  5.859375E+00  0.000000E+00
  3.906250E-01  6.250000E+00  0.000000E+00
  3.906250E-01  6.640625E+00  0.000000E+00
  3.906250E-01  7.031250E+00  0.000000E+00
  3.906250E-01  7.421875E+00  0.000000E+00
  3.906250E-01  7.812500E+00  0.000000E+00
  3.906250E-01  8.203125E+00  0.000000E+00
  3.906250E-01  8.593750E+00  0.000000E+00
  3.906250E-01  8.984375E+00  0.000000E+00
  3.906250E-01  9.375000E+00  0.000000E+00
  3.906250E-01  9.765625E+00  0.000000E+00
  3.906250E-01  1.015625E+01  0.000000E+00
  3.906250E-01  1.054688E+01  0.000000E+00
  3.906250E-01  1.093750E+01  0.000000E+00
  3.906250E-01  1.132812E+01  0.000000E+00
  3.906250E-01  1.171875E+01  0.000000E+00
  3.906250E-01  1.210938E+01  0.000000E+00
  3.906250E-01  1.250000E+01  0.000000E+00
  3.906250E-01  1.289062E+01  0.000000E+00
  3.906250E-01  1.328125E+01  0.000000E+00
  3.906250E-01  1.367188E+01  0.000000E+00
  3.906250E-01  1.406250E+01  0.000000E+00
  3.906250E-01  1.445312E+01  0.000000E+00
  3.906250E-01  1.484375E+01  0.000000E+00
  3.906250E-01  1.523438E+01  0.000000E+00
  3.906250E-01  1.562500E+01  0.000000E+00
  3.906250E-01  1.601562E+01  0.000000E+00
  3.906250E-01  1.640625E+01  0.000000E+00
  3.906250E-01  1.679688E+01  0.000000E+00
  3.906250E-01  1.718750E+01  0.000000E+00
  3.906250E-01  1.757812E+01  0.000000E+00
  3.906250E-01  1.796875E+01  0.000000E+00
  3.906250E-01  1.835938E+01  0.000000E+00
  3.906250E-01  1.875000E+01  0.000000E+00
  3.906250E-01  1.914062E+01  0.000000E+00
  3.906250E-01  1.953125E+01  0.000000E+00
  3.906250E-01  1.992188E+01  0.000000E+00
  3.906250E-01  2.031250E+01  0.000000E+00
  3.906250E-01  2.070312E+01  0.000000E+00
  3.906250E-01  2.109375E+01  0.000000E+00
  3.906250E-01  2.148438E+01  0.000000E+00
  3.906250E-01  2.187500E+01  0.000000E+00
  3.906250E-01  2.226562E+01  0.000000E+00
  3.906250E-01  2.265625E+01  0.000000E+00
  3.906250E-01  2.304688E+01  0.000000E+00
  3.906250E-01  2.343750E+01  0.000000E+00
  3.906250E-01  2.382812E+01  0.000000E+00
  3.906250E-01  2.421875E+01  0.000000E+00
  3.906250E-01  2.460938E+01  0.000000E+00
  7.812500E-01  0.000000E+00  0.000000E+00
  7.812500E-01  3.906250E-01  0.000000E+00
  7.812500E-01  7.812500E-01  0.000000E+00
  7.812500E-01  1.171875E+00  0.000000E+00
  7.812500E-01  1.562500E+00  0.000000E+00
  7.812500E-01  1.953125E+00  0.000000E+00
  7.812500E-01  2.343750E+00  0.000000E+00
  7.812500E-01  2.734375E+00  0.000000E+00
  7.812500E-01  3.125000E+00  0.000000E+00
  7.812500E-01  3.515625E+00  0.000000E+00
  7.812500E-01  3.906250E+00  0.000000E+00
  7.812500E-01  4.296875E+00  0.000000E+00
  7.812500E-01  4.687500E+00  0.000000E+00
  7.812500E-01  5.078125E+00  0.000000E+00
  7.812500E-01  5.468750E+00  0.000000E+00
  7.812500E-01  5.859375E+00  0.000000E+00
  7.812500E-01  6.250000E+00  0.000000E+00
  7.812500E-01  6.640625E+00  0.000000E+00
  7.812500E-01  7.031250E+00  0.000000E+00
  7.812500E-01  7.421875E+00  0.000000E+00
  7.812500E-01  7.812500E+00  0.000000E+00
  7.812500E-01  8.203125E+00  0.000000E+00
  7.812500E-01  8.593750E+00  0.000000E+00
  7.812500E-01  8.984375E+00  0.000000E+00
  7.812500E-01  9.375000E+00  0.000000E+00
  7.812500E-01  9.765625E+00  0.000000E+00
  7.812500E-01  1.015625E+01  0.000000E+00
  7.812500E-01  1.054688E+01  0.000000E+00
  7.812500E-01  1.093750E+01  0.000000E+00
  7.812500E-01  1.132812E+01  0.000000E+00
  7.812500E-01  1.171875E+01  0.000000E+00
  7.812500E-01  1.210938E+01  0.000000E+00
  7.812500E-01  1.250000E+01  0.000000E+00
  7.812500E-01  1.289062E+01  0.000000E+00
  7.812500E-01  1.328125E+01  0.000000E+00
  7.812500E-01  1.367188E+01  0.000000E+00
  7.812500E-01  1.406250E+01  0.000000E+00
  7.812500E-01  1.445312E+01  0.000000E+00
  7.812500E-01  1.484375E+01  0.000000E+00
  7.812500E-01  1.523438E+01  0.000000E+00
  7.812500E-01  1.562500E+01  0.000000E+00
  7.812500E-01  1.601562E+01  0.000000E+00
  7.812500E-01  1.640625E+01  0.000000E+00
  7.812500E-01  1.679688E+01  0.000000E+00
  7.812500E-01  1.718750E+01  0.000000E+00
  7.812500E-01  1.757812E+01  0.000000E+00
  7.812500E-01  1.796875E+01  0.000000E+00
  7.812500E-01  1.835938E+01  0.000000E+00
  7.812500E-01  1.875000E+01  0.000000E+00
  7.812500E-01  1.914062E+01  0.000000E+00
  7.812500E-01  1.953125E+01  0.000000E+00
  7.812500E-01  1.992188E+01  0.000000E+00
  7.812500E-01  2.031250E+01  0.000000E+00
  7.812500E-01  2.070312E+01  0.000000E+00
  7.812500E-01  2.109375E+01  0.000000E+00
  7.812500E-01  2.148438E+01  0.000000E+00
  7.812500E-01  2.187500E+01  0.000000E+00
  7.812500E-01  2.226562E+01  0.000000E+00
  7.812500E-01  2.265625E+01  0.000000E+00
  7.812500E-01  2.304688E+01  0.000000E+00
  7.812500E-01  2.343750E+01  0.000000E+00
  7.812500E-01  2.382812E+01  0.000000E+00
  7.812500E-01  2.421875E+01  0.000000E+00
  7.812500E-01  2.460938E+01  0.000000E+00
  1.171875E+00  0.000000E+00  0.000000E+00
  1.171875E+00  3.906250E-01  0.000000E+00
  1.171875E+00  7.812500E-01  0.000000E+00
  1.171875E+00  1.171875E+00  0.000000E+00
  1.171875E+00  1.562500E+00  0.000000E+00
  1.171875E+00  1.953125E+00  0.000000E+00
  1.171875E+00  2.343750E+00  0.000000E+00
  1.171875E+00  2.734375E+00  0.000000E+00
  1.171875E+00  3.125000E+00  0.000000E+00
  1.171875E+00  3.515625E+00  0.000000E+00
  1.171875E+00  3.906250E+00  0.000000E+00
  1.171875E+00  4.296875E+00  0.000000E+00
  1.171875E+00  4.687500E+00  0.000000E+00
  1.171875E+00  5.078125E+00  0.000000E+00
  1.171875E+00  5.468750E+00  0.000000E+00
  1.171875E+00  5.859375E+00  0.000000E+00
  1.171875E+00  6.250000E+00  0.000000E+00
  1.171875E+00  6.640625E+00  0.000000E+00
  1.171875E+00  7.031250E+00  0.000000E+00
  1.171875E+00  7.421875E+00  0.000000E+00
  1.171875E+00  7.812500E+00  0.000000E+00
  1.171875E+00  8.203125E+00  0.000000E+00
  1.171875E+00  8.593750E+00  0.000000E+00
  1.171875E+00  8.984375E+00  0.000000E+00
  1.171875E+00  9.375000E+00  0.000000E+00
  1.171875E+00  9.765625E+00  0.000000E+00
  1.171875E+00  1.015625E+01  0.000000E+00
  1.171875E+00  1.054688E+01  0.000000E+00
  1.171875E+00  1.093750E+01  0.000000E+00
  1.171875E+00  1.132812E+01  0.000000E+00
  1.171875E+00  1.171875E+01  0.000000E+00
  1.171875E+00  1.210938E+01  0.000000E+00
  1.171875E+00  1.250000E+01  0.000000E+00
  1.171875E+00  1.289062E+01  0.000000E+00
  1.171875E+00  1.328125E+01  0.000000E+00
  1.171875E+00  1.367188E+01  0.000000E+00
  1.171875E+00  1.406250E+01  0.000000E+00
  1.171875E+00  1.445312E+01  0.000000E+00
[...]
POINT_DATA   4096
SCALARS CON  float  1
LOOKUP_TABLE default
  4.711964E-01
  4.744568E-01
  4.841887E-01
  4.791993E-01
  4.792175E-01
  4.692467E-01
  4.716597E-01
  4.689834E-01
  4.777032E-01
  4.756369E-01
  4.790508E-01
  4.696774E-01
  4.690396E-01
  4.616984E-01
  4.676167E-01
  4.673295E-01
  4.767312E-01
  4.745661E-01
  4.784455E-01
  4.704797E-01
  4.710489E-01
  4.627027E-01
  4.641636E-01
  4.567532E-01
  4.593827E-01
  4.548675E-01
  4.626957E-01
  4.640963E-01
  4.753231E-01
  4.747441E-01
  4.793873E-01
  4.715996E-01
  4.730371E-01
  4.675329E-01
  4.738583E-01
  4.713152E-01
  4.759764E-01
  4.683155E-01
  4.682386E-01
  4.593146E-01
  4.613437E-01
  4.555365E-01
  4.591466E-01
  4.530781E-01
  4.566156E-01
  4.535662E-01
  4.641583E-01
  4.695275E-01
  4.844095E-01
  4.844816E-01
  4.852075E-01
  4.697692E-01
  4.633210E-01
  4.540874E-01
  4.638637E-01
  4.727527E-01
  4.930094E-01
  4.978312E-01
  5.015222E-01
  4.866512E-01
  4.779362E-01
  4.625812E-01
  4.625357E-01
  4.598621E-01
  4.725376E-01
  4.776850E-01
  4.887440E-01
  4.865373E-01
  4.853125E-01
  4.727750E-01
  4.690951E-01
  4.627666E-01
  4.692335E-01
  4.708970E-01
  4.791695E-01
  4.762092E-01
  4.770882E-01
  4.687065E-01
  4.689512E-01
  4.645405E-01
  4.704746E-01
  4.698459E-01
  4.754001E-01
  4.705736E-01
  4.710171E-01
  4.634211E-01
  4.646390E-01
  4.602146E-01
  4.645806E-01
  4.618414E-01
  4.667710E-01
  4.648207E-01
  4.715146E-01
  4.713268E-01
  4.780172E-01
  4.748779E-01
  4.765519E-01
  4.687173E-01
  4.683104E-01
  4.619451E-01
  4.653750E-01
  4.628041E-01
  4.676617E-01
  4.632952E-01
  4.642120E-01
  4.560295E-01
  4.551885E-01
  4.482893E-01
  4.515866E-01
  4.512715E-01
  4.625528E-01
  4.690766E-01
  4.821309E-01
  4.817977E-01
  4.812825E-01
  4.682857E-01
  4.645244E-01
  4.607599E-01
  4.736257E-01
  4.844785E-01
  5.009892E-01
  5.008478E-01
  4.979163E-01
  4.812481E-01
  4.726794E-01
  4.611751E-01
  4.627459E-01
  4.618648E-01
  4.630860E-01
  4.770956E-01
  4.898973E-01
  4.914854E-01
  4.857609E-01
  4.732174E-01
  4.649696E-01
  4.607076E-01
  4.647946E-01
  4.698378E-01
  4.763269E-01
  4.770906E-01
  4.762513E-01
  4.712866E-01
  4.690971E-01
  4.667591E-01
  4.685402E-01
  4.689151E-01
  4.711008E-01
  4.701057E-01
  4.704382E-01
  4.680939E-01
  4.677043E-01
  4.649571E-01
  4.644470E-01
  4.623424E-01
  4.635835E-01
  4.638134E-01
  4.665772E-01
  4.662513E-01
  4.665934E-01
  4.637515E-01
  4.635222E-01
  4.626873E-01
  4.656545E-01
  4.668179E-01
  4.689977E-01
  4.669709E-01
  4.653855E-01
  4.606531E-01
  4.578741E-01
  4.531387E-01
  4.511964E-01
  4.483709E-01
  4.500456E-01
  4.529958E-01
  4.617889E-01
  4.705092E-01
  4.799565E-01
  4.817190E-01
  4.787141E-01
  4.691017E-01
  4.627982E-01
  4.606539E-01
  4.692472E-01
  4.818933E-01
  4.964076E-01
  5.007870E-01
  4.959876E-01
  4.801930E-01
  4.644308E-01
  4.506121E-01
  4.469019E-01
  4.501008E-01
  4.636038E-01
  4.783414E-01
  4.863210E-01
  4.912454E-01
  4.816561E-01
  4.706966E-01
  4.558834E-01
  4.519954E-01
  4.517872E-01
  4.624853E-01
  4.703886E-01
  4.796841E-01
  4.781163E-01
  4.757960E-01
  4.669302E-01
  4.647732E-01
  4.622309E-01
  4.679817E-01
  4.701885E-01
  4.753154E-01
  4.728524E-01
  4.730801E-01
  4.685477E-01
  4.696433E-01
  4.666776E-01
  4.678082E-01
  4.633175E-01
  4.633190E-01
  4.601345E-01
  4.638207E-01
  4.643226E-01
  4.687338E-01
  4.658772E-01
  4.649142E-01
  4.585434E-01
  4.587086E-01
  4.577363E-01
  4.640007E-01
  4.655118E-01
  4.687442E-01
  4.635572E-01
  4.608284E-01
  4.541344E-01
  4.548948E-01
  4.546132E-01
  4.617858E-01
  4.657518E-01
  4.739236E-01
  4.748520E-01
  4.761927E-01
  4.688059E-01
  4.647707E-01
  4.590204E-01
  4.639073E-01
  4.702760E-01
  4.836469E-01
  4.887419E-01
  4.904199E-01
  4.793967E-01
  4.694749E-01
  4.564979E-01
  4.526618E-01
  4.495723E-01
  4.563698E-01
  4.581259E-01
  4.764921E-01
  4.813983E-01
  4.878623E-01
  4.745691E-01
  4.666956E-01
  4.506838E-01
  4.511074E-01
  4.488385E-01
  4.614406E-01
  4.650119E-01
  4.758220E-01
  4.715994E-01
  4.736319E-01
  4.644674E-01
  4.671515E-01
  4.627953E-01
  4.710664E-01
  4.701173E-01
  4.782837E-01
  4.739501E-01
  4.773843E-01
  4.689599E-01
  4.699673E-01
  4.610332E-01
  4.630372E-01
  4.563390E-01
  4.611518E-01
  4.570164E-01
  4.632488E-01
  4.590306E-01
  4.642266E-01
  4.589790E-01
  4.641825E-01
  4.602735E-01
  4.673329E-01
  4.644367E-01
  4.707273E-01
  4.652471E-01
  4.681722E-01
  4.600502E-01
  4.624975E-01
  4.567149E-01
  4.633627E-01
  4.619327E-01
  4.714050E-01
  4.701572E-01
  4.773053E-01
  4.717401E-01
  4.736136E-01
  4.632912E-01
  4.627080E-01
  4.540696E-01
  4.594288E-01
  4.593749E-01
  4.723541E-01
  4.744885E-01
  4.821838E-01
  4.732317E-01
  4.694230E-01
  4.540218E-01
  4.510070E-01
  4.433924E-01
  4.525842E-01
  4.644793E-01
  4.764511E-01
  4.758870E-01
  4.818573E-01
  4.694200E-01
  4.638972E-01
  4.475417E-01
  4.476108E-01
  4.437860E-01
  4.572897E-01
  4.618024E-01
  4.751379E-01
  4.711778E-01
  4.732635E-01
  4.620362E-01
  4.646457E-01
  4.609048E-01
  4.728738E-01
  4.743622E-01
  4.842487E-01
  4.774666E-01
  4.782162E-01
  4.664615E-01
  4.674934E-01
  4.589857E-01
  4.627816E-01
  4.555285E-01
  4.603822E-01
  4.560397E-01
  4.657969E-01
  4.657189E-01
  4.756966E-01
  4.702430E-01
  4.721057E-01
  4.611097E-01
  4.637719E-01
  4.594461E-01
  4.697965E-01
  4.686613E-01
  4.758081E-01
  4.679234E-01
  4.703465E-01
  4.634870E-01
  4.715872E-01
  4.706305E-01
  4.805309E-01
  4.758015E-01
  4.788210E-01
  4.677177E-01
  4.671955E-01
  4.560298E-01
  4.582626E-01
  4.522631E-01
  4.607929E-01
  4.601009E-01
  4.704193E-01
  4.665048E-01
  4.704368E-01
  4.608292E-01
  4.629950E-01
  4.557104E-01
  4.615677E-01
  4.572820E-01
  4.655578E-01
  4.624894E-01
  4.721897E-01
  4.721811E-01
  4.764967E-01
  4.673002E-01
  4.638657E-01
  4.530710E-01
  4.546073E-01
  4.525178E-01
  4.620142E-01
  4.635802E-01
  4.712683E-01
  4.668742E-01
  4.684994E-01
  4.619068E-01
  4.664628E-01
  4.661735E-01
  4.767041E-01
  4.783876E-01
  4.853292E-01
  4.789347E-01
  4.771023E-01
  4.650616E-01
  4.621801E-01
  4.532152E-01
  4.555946E-01
  4.524633E-01
  4.598438E-01
  4.599248E-01
  4.683461E-01
  4.673006E-01
  4.732420E-01
  4.694049E-01
  4.736362E-01
  4.699371E-01
  4.755453E-01
  4.727808E-01
  4.773432E-01
  4.714169E-01
  4.723496E-01
  4.647788E-01
  4.677006E-01
  4.654240E-01
  4.742623E-01
  4.750966E-01
  4.822384E-01
  4.770726E-01
  4.771368E-01
  4.672519E-01
  4.662789E-01
  4.582398E-01
  4.600001E-01
  4.545453E-01
  4.585732E-01
  4.553950E-01
  4.616329E-01
  4.599023E-01
  4.662375E-01
  4.630264E-01
  4.668306E-01
  4.609814E-01
  4.631173E-01
  4.576859E-01
  4.628837E-01
  4.676628E-01
  4.687126E-01
  4.685807E-01
  4.715612E-01
  4.692327E-01
  4.670606E-01
  4.607056E-01
  4.591119E-01
  4.583710E-01
  4.643503E-01
  4.685461E-01
  4.735895E-01
  4.713028E-01
  4.686503E-01
  4.628789E-01
  4.637572E-01
  4.669902E-01
  4.770464E-01
  4.833960E-01
  4.874683E-01
  4.813643E-01
  4.736591E-01
  4.627780E-01
  4.583343E-01
  4.551193E-01
  4.578311E-01
  4.587258E-01
  4.630498E-01
  4.651883E-01
  4.716872E-01
  4.757504E-01
  4.813584E-01
  4.803516E-01
  4.787950E-01
  4.728893E-01
  4.718275E-01
  4.709917E-01
  4.751899E-01
  4.754038E-01
  4.757222E-01
  4.706768E-01
  4.691397E-01
  4.676457E-01
  4.725847E-01
  4.755879E-01
  4.795357E-01
  4.765290E-01
  4.735000E-01
  4.666516E-01
  4.640938E-01
  4.605351E-01
  4.618398E-01
  4.614782E-01
  4.647963E-01
  4.647289E-01
  4.662029E-01
  4.628538E-01
  4.619288E-01
  4.594892E-01
  4.629488E-01
  4.655632E-01
  4.709652E-01
  4.708531E-01
  4.711297E-01
  4.608214E-01
  4.616746E-01
  4.657493E-01
  4.687778E-01
  4.718773E-01
  4.717806E-01
  4.719156E-01
  4.709157E-01
  4.723679E-01
  4.732525E-01
  4.749455E-01
  4.733210E-01
  4.708348E-01
  4.662584E-01
  4.647337E-01
  4.654629E-01
  4.712879E-01
  4.775958E-01
  4.837409E-01
  4.838817E-01
  4.797887E-01
  4.706226E-01
  4.625107E-01
  4.558287E-01
  4.548517E-01
  4.568160E-01
  4.628615E-01
  4.679691E-01
  4.727673E-01
  4.736675E-01
  4.739342E-01
  4.722842E-01
  4.728654E-01
  4.738009E-01
  4.775663E-01
  4.800841E-01
  4.820962E-01
  4.794736E-01
  4.751020E-01
  4.681131E-01
  4.637860E-01
  4.613588E-01
  4.637855E-01
  4.669398E-01
  4.712222E-01
  4.721583E-01
  4.721975E-01
  4.698450E-01
  4.692960E-01
  4.684647E-01
  4.695272E-01
  4.688233E-01
  4.685727E-01
  4.663763E-01
  4.656945E-01
  4.645012E-01
  4.657462E-01
  4.665078E-01
  4.688552E-01
  4.692424E-01
  4.696124E-01
  4.669776E-01
  4.645909E-01
  4.611346E-01
  4.611270E-01
  4.580377E-01
  4.620610E-01
  4.665848E-01
  4.739504E-01
  4.758478E-01
  4.771409E-01
  4.741206E-01
  4.747379E-01
  4.745698E-01
  4.778868E-01
  4.767539E-01
  4.750905E-01
  4.682594E-01
  4.647095E-01
  4.622744E-01
  4.677972E-01
  4.740834E-01
  4.821814E-01
  4.821391E-01
  4.781757E-01
  4.676833E-01
  4.610869E-01
  4.566819E-01
  4.605815E-01
  4.653109E-01
  4.730203E-01
  4.756800E-01
  4.781921E-01
  4.762479E-01
  4.767811E-01
  4.747437E-01
  4.751711E-01
  4.723651E-01
  4.724561E-01
  4.709414E-01
  4.733709E-01
  4.729898E-01
  4.735596E-01
  4.690082E-01
  4.660379E-01
  4.614239E-01
  4.621785E-01
  4.627123E-01
  4.668360E-01
  4.674259E-01
  4.694891E-01
  4.683549E-01
  4.703656E-01
  4.700822E-01
  4.723271E-01
  4.712791E-01
  4.728262E-01
  4.721078E-01
  4.744601E-01
  4.734254E-01
  4.736574E-01
  4.701397E-01
  4.699268E-01
  4.687857E-01
  4.716623E-01
  4.709962E-01
  4.703580E-01
  4.644396E-01
  4.528207E-01
  4.540827E-01
  4.595005E-01
  4.659342E-01
  4.730153E-01
  4.771977E-01
  4.795272E-01
  4.790112E-01
  4.786392E-01
  4.773884E-01
  4.766246E-01
  4.737949E-01
  4.703779E-01
  4.657119E-01
  4.634045E-01
  4.633092E-01
  4.672970E-01
  4.721572E-01
  4.768840E-01
  4.771768E-01
  4.739308E-01
  4.670383E-01
  4.613186E-01
  4.580629E-01
  4.605696E-01
  4.666679E-01
  4.753517E-01
  4.809974E-01
  4.823025E-01
  4.773362E-01
  4.705004E-01
  4.639346E-01
  4.622021E-01
  4.642273E-01
  4.700176E-01
  4.746969E-01
  4.769396E-01
  4.738340E-01
  4.683573E-01
  4.615820E-01
  4.577852E-01
  4.563403E-01
  4.583005E-01
  4.604307E-01
  4.631350E-01
  4.644602E-01
  4.667517E-01
  4.689642E-01
  4.725679E-01
  4.746433E-01
  4.755802E-01
  4.733982E-01
  4.709863E-01
  4.685596E-01
  4.692930E-01
  4.716445E-01
  4.761302E-01
  4.791392E-01
  4.806715E-01
  4.781939E-01
  4.736706E-01
  4.665158E-01
  4.600843E-01
  4.544695E-01
  4.558651E-01
  4.555571E-01
  4.577278E-01
  4.651474E-01
  4.709063E-01
  4.758291E-01
  4.748801E-01
  4.734824E-01
  4.703536E-01
  4.710627E-01
  4.711568E-01
  4.724959E-01
  4.694294E-01
  4.660802E-01
  4.607573E-01
  4.601953E-01
  4.620454E-01
  4.691538E-01
  4.742026E-01
  4.773429E-01
  4.731538E-01
  4.675922E-01
  4.608624E-01
  4.604229E-01
  4.634152E-01
  4.719067E-01
  4.783706E-01
  4.832823E-01
  4.813524E-01
  4.778740E-01
  4.715222E-01
  4.681971E-01
  4.645050E-01
  4.640416E-01
  4.626508E-01
  4.641733E-01
  4.644014E-01
  4.664247E-01
  4.653956E-01
  4.649308E-01
  4.618194E-01
  4.611984E-01
  4.600685E-01
  4.623099E-01
  4.633375E-01
  4.664308E-01
  4.675533E-01
  4.706434E-01
  4.713178E-01
  4.725722E-01
  4.699962E-01
  4.684025E-01
  4.658909E-01
  4.681007E-01
  4.711691E-01
  4.771484E-01
  4.796318E-01
  4.812455E-01
  4.785816E-01
  4.770338E-01
  4.734219E-01
  4.712333E-01
  4.657939E-01
  4.613538E-01
  4.533563E-01
  4.571372E-01
  4.590036E-01
  4.655729E-01
  4.680296E-01
  4.728293E-01
  4.717235E-01
  4.727445E-01
  4.691635E-01
  4.694059E-01
  4.659655E-01
  4.661713E-01
  4.622402E-01
  4.622894E-01
  4.596912E-01
  4.628639E-01
  4.642949E-01
  4.707488E-01
  4.729595E-01
  4.767314E-01
  4.732227E-01
  4.705471E-01
  4.630399E-01
  4.610937E-01
  4.593523E-01
  4.658756E-01
  4.710776E-01
  4.787815E-01
  4.777993E-01
  4.750483E-01
  4.653562E-01
  4.605025E-01
  4.560302E-01
  4.601345E-01
  4.632760E-01
  4.697647E-01
  4.692716E-01
  4.689237E-01
  4.627716E-01
  4.609727E-01
  4.576315E-01
  4.605027E-01
  4.609386E-01
  4.652373E-01
  4.651130E-01
  4.683801E-01
  4.679020E-01
  4.713777E-01
  4.704356E-01
  4.717221E-01
  4.671901E-01
  4.653538E-01
  4.604472E-01
  4.619774E-01
  4.632551E-01
  4.712086E-01
  4.760558E-01
  4.827527E-01
  4.815605E-01
  4.798370E-01
  4.712300E-01
  4.656779E-01
  4.576230E-01
  4.559299E-01
  4.631430E-01
  4.636087E-01
  4.620872E-01
  4.660328E-01
  4.668288E-01
  4.700283E-01
  4.673945E-01
  4.669667E-01
  4.630017E-01
  4.640342E-01
  4.626508E-01
  4.650390E-01
  4.627837E-01
  4.631848E-01
  4.601566E-01
  4.627242E-01
  4.645915E-01
  4.724124E-01
  4.764650E-01
  4.811978E-01
  4.775045E-01
  4.735721E-01
  4.648647E-01
  4.619494E-01
  4.593071E-01
  4.638547E-01
  4.662338E-01
  4.712875E-01
  4.702207E-01
  4.707045E-01
  4.667544E-01
  4.668595E-01
  4.638680E-01
  4.647091E-01
  4.619086E-01
  4.631538E-01
  4.616128E-01
  4.646194E-01
  4.642264E-01
  4.670254E-01
  4.654921E-01
  4.674473E-01
  4.662280E-01
  4.693410E-01
  4.689617E-01
  4.717252E-01
  4.698193E-01
  4.705202E-01
  4.665466E-01
  4.654751E-01
  4.606286E-01
  4.605640E-01
  4.592866E-01
  4.645120E-01
  4.678153E-01
  4.741926E-01
  4.741127E-01
  4.744412E-01
  4.692427E-01
  4.681268E-01
  4.650879E-01
  4.671598E-01
  4.656261E-01
  4.666845E-01
  4.664116E-01
  4.691858E-01
  4.676136E-01
  4.678789E-01
  4.661679E-01
  4.679837E-01
  4.677264E-01
  4.695125E-01
  4.675587E-01
  4.668666E-01
  4.629522E-01
  4.618372E-01
  4.594468E-01
  4.614597E-01
  4.628757E-01
  4.681462E-01
  4.713283E-01
  4.767501E-01
  4.787706E-01
  4.817692E-01
  4.795875E-01
  4.766185E-01
  4.682746E-01
  4.617706E-01
  4.549288E-01
  4.547882E-01
  4.561946E-01
  4.618031E-01
  4.634388E-01
  4.644472E-01
  4.606878E-01
  4.599183E-01
  4.594163E-01
  4.644834E-01
  4.681590E-01
  4.727476E-01
  4.714526E-01
  4.697879E-01
  4.647583E-01
  4.636271E-01
  4.623995E-01
  4.657903E-01
  4.675283E-01
  4.713348E-01
  4.712371E-01
  4.720796E-01
  4.690722E-01
  4.678775E-01
  4.640577E-01
  4.632559E-01
  4.608676E-01
  4.621527E-01
  4.619573E-01
  4.649081E-01
  4.654105E-01
  4.680146E-01
  4.671880E-01
  4.676052E-01
  4.640668E-01
  4.622150E-01
  4.583564E-01
  4.590091E-01
  4.596753E-01
  4.644454E-01
  4.795276E-01
  4.777371E-01
  4.726394E-01
  4.691443E-01
  4.664414E-01
  4.665372E-01
  4.661952E-01
  4.667472E-01
  4.657051E-01
  4.654693E-01
  4.641239E-01
  4.640861E-01
  4.633447E-01
  4.643789E-01
  4.653066E-01
  4.685412E-01
  4.717847E-01
  4.766963E-01
  4.799775E-01
  4.824585E-01
  4.807143E-01
  4.767359E-01
  4.693934E-01
  4.629716E-01
  4.572148E-01
  4.552140E-01
  4.544634E-01
  4.562015E-01
  4.574797E-01
  4.603586E-01
  4.628155E-01
  4.668321E-01
  4.692642E-01
  4.711762E-01
  4.699357E-01
  4.685399E-01
  4.662333E-01
  4.662529E-01
  4.663116E-01
  4.678353E-01
  4.680817E-01
  4.694672E-01
  4.702507E-01
  4.724969E-01
  4.729241E-01
  4.724868E-01
  4.685841E-01
  4.644045E-01
  4.595407E-01
  4.579127E-01
  4.582670E-01
  4.626532E-01
  4.675537E-01
  4.729205E-01
  4.741286E-01
  4.719793E-01
  4.647551E-01
  4.571422E-01
  4.503279E-01
  4.492679E-01
  4.527120E-01
  4.615229E-01
  4.703869E-01
  4.778958E-01
  4.818031E-01
  4.815764E-01
  4.767334E-01
  4.700991E-01
  4.656487E-01
  4.645668E-01
  4.666184E-01
  4.690891E-01
  4.701827E-01
  4.684650E-01
  4.652470E-01
  4.620555E-01
  4.612912E-01
  4.632186E-01
  4.674456E-01
  4.715430E-01
  4.742772E-01
  4.748958E-01
  4.749977E-01
  4.752349E-01
  4.758239E-01
  4.746481E-01
  4.707125E-01
  4.639163E-01
  4.571239E-01
  4.526250E-01
  4.521204E-01
  4.541378E-01
  4.569188E-01
  4.584300E-01
  4.594963E-01
  4.613606E-01
  4.657389E-01
  4.714655E-01
  4.765896E-01
  4.780641E-01
  4.755173E-01
  4.699220E-01
  4.644976E-01
  4.611364E-01
  4.612686E-01
  4.639089E-01
  4.680186E-01
  4.711999E-01
  4.722683E-01
  4.700244E-01
  4.656202E-01
  4.604394E-01
  4.571987E-01
  4.570560E-01
  4.607301E-01
  4.663534E-01
  4.717734E-01
  4.738918E-01
  4.720706E-01
  4.667711E-01
  4.606478E-01
  4.551539E-01
  4.517587E-01
  4.505323E-01
  4.526638E-01
  4.582911E-01
  4.671721E-01
  4.760821E-01
  4.889540E-01
  4.835537E-01
  4.772757E-01
  4.685691E-01
  4.649857E-01
  4.618963E-01
  4.633679E-01
  4.629283E-01
  4.646536E-01
  4.632191E-01
  4.640922E-01
  4.628245E-01
  4.649116E-01
  4.651951E-01
  4.681248E-01
  4.678446E-01
  4.691606E-01
  4.674224E-01
  4.685607E-01
  4.679653E-01
  4.703415E-01
  4.695805E-01
  4.698908E-01
  4.661429E-01
  4.642870E-01
  4.602620E-01
  4.597260E-01
  4.577904E-01
  4.597017E-01
  4.608021E-01
  4.663304E-01
  4.704579E-01
  4.764422E-01
  4.771161E-01
  4.767220E-01
  4.711562E-01
  4.678137E-01
  4.634463E-01
  4.635757E-01
  4.625077E-01
  4.647310E-01
  4.652175E-01
  4.690972E-01
  4.704346E-01
  4.725466E-01
  4.688087E-01
  4.645686E-01
  4.569189E-01
  4.538560E-01
  4.524963E-01
  4.582705E-01
  4.646532E-01
  4.737622E-01
  4.772321E-01
  4.781141E-01
  4.713364E-01
  4.641421E-01
  4.546516E-01
  4.510140E-01
  4.501937E-01
  4.575659E-01
  4.665502E-01
  4.789475E-01
  4.856580E-01
  4.814659E-01
  4.777778E-01
  4.758156E-01
  4.663652E-01
  4.640374E-01
  4.590965E-01
  4.627075E-01
  4.616079E-01
  4.653044E-01
  4.614905E-01
  4.624539E-01
  4.584912E-01
  4.624645E-01
  4.628110E-01
  4.692291E-01
  4.677296E-01
  4.685899E-01
  4.613948E-01
  4.605689E-01
  4.572455E-01
  4.631955E-01
  4.648037E-01
  4.705353E-01
  4.673000E-01
  4.676519E-01
  4.624158E-01
  4.647264E-01
  4.628245E-01
  4.668090E-01
  4.642985E-01
  4.674724E-01
  4.663224E-01
  4.730284E-01
  4.747500E-01
  4.805173E-01
  4.765747E-01
  4.744191E-01
  4.644692E-01
  4.611652E-01
  4.553197E-01
  4.591491E-01
  4.604509E-01
  4.687118E-01
  4.698469E-01
  4.732760E-01
  4.667970E-01
  4.634368E-01
  4.544853E-01
  4.541489E-01
  4.524835E-01
  4.603778E-01
  4.641921E-01
  4.724004E-01
  4.713461E-01
  4.726864E-01
  4.668151E-01
  4.674939E-01
  4.639372E-01
  4.668966E-01
  4.639826E-01
  4.670649E-01
  4.659861E-01
  4.729768E-01
  4.752073E-01
  4.790619E-01
  4.719893E-01
  4.724929E-01
  4.639204E-01
  4.649164E-01
  4.580323E-01
  4.607379E-01
  4.551868E-01
  4.590127E-01
  4.548586E-01
  4.606205E-01
  4.587170E-01
  4.662884E-01
  4.645849E-01
  4.699706E-01
  4.638473E-01
  4.644384E-01
  4.557372E-01
  4.574670E-01
  4.533372E-01
  4.608164E-01
  4.610638E-01
  4.700335E-01
  4.687807E-01
  4.748023E-01
  4.706026E-01
  4.743865E-01
  4.687922E-01
  4.723872E-01
  4.684584E-01
  4.753663E-01
  4.745461E-01
  4.816765E-01
  4.766866E-01
  4.768709E-01
  4.660150E-01
  4.647365E-01
  4.572991E-01
  4.615817E-01
  4.590254E-01
  4.663572E-01
  4.655986E-01
  4.740157E-01
  4.724843E-01
  4.769253E-01
  4.684495E-01
  4.660080E-01
  4.546581E-01
  4.548901E-01
  4.505901E-01
  4.588212E-01
  4.602365E-01
  4.703161E-01
  4.698396E-01
  4.762605E-01
  4.723144E-01
  4.765583E-01
  4.716310E-01
  4.755623E-01
  4.707673E-01
  4.755336E-01
  4.723122E-01
  4.784964E-01
  4.751740E-01
  4.667803E-01
  4.650574E-01
  4.706206E-01
  4.646203E-01
  4.665869E-01
  4.598399E-01
  4.633668E-01
  4.585451E-01
  4.627016E-01
  4.572560E-01
  4.610087E-01
  4.569528E-01
  4.639616E-01
  4.631480E-01
  4.707422E-01
  4.661886E-01
  4.671279E-01
  4.569571E-01
  4.571091E-01
  4.520435E-01
  4.601776E-01
  4.613289E-01
  4.707986E-01
  4.686301E-01
  4.736955E-01
  4.693036E-01
  4.748021E-01
  4.712652E-01
  4.758226E-01
  4.696963E-01
  4.723653E-01
  4.671700E-01
  4.731037E-01
  4.707121E-01
  4.762916E-01
  4.698811E-01
  4.699736E-01
  4.600436E-01
  4.607899E-01
  4.558936E-01
  4.639563E-01
  4.656443E-01
  4.767897E-01
  4.761470E-01
  4.802198E-01
  4.707070E-01
  4.683492E-01
  4.578879E-01
  4.597189E-01