# vtk DataFile Version 2.0
title
ASCII
DATASET STRUCTURED_GRID
DIMENSIONS   64   64    1
POINTS   4096  float
  0.000000E+00  0.000000E+00  0.000000E+00
  0.000000E+00  3.906250E-01  0.000000E+00
  0.000000E+00  7.812500E-01  0.000000E+00
  0.000000E+00  1.171875E+00  0.000000E+00
  0.000000E+00  1.562500E+00  0.000000E+00
  0.000000E+00  1.953125E+00  0.000000E+00
  0.000000E+00  2.343750E+00  0.000000E+00
  0.000000E+00  2.734375E+00  0.000000E+00
  0.000000E+00  3.125000E+00  0.000000E+00
  0.000000E+00  3.515625E+00  0.000000E+00
  0.000000E+00  3.906250E+00  0.000000E+00
  0.000000E+00  4.296875E+00  0.000000E+00
  0.000000E+00  4.687500E+00  0.000000E+00
  0.000000E+00  5.078125E+00  0.000000E+00
  0.000000E+00  5.468750E+00  0.000000E+00
  0.000000E+00  5.859375E+00  0.000000E+00
  0.000000E+00  6.250000E+00  0.000000E+00
  0.000000E+00  6.640625E+00  0.000000E+00
  0.000000E+00  7.031250E+00  0.000000E+00
  0.000000E+00  7.421875E+00  0.000000E+00
  0.000000E+00  7.812500E+00  0.000000E+00
  0.000000E+00  8.203125E+00  0.000000E+00
  0.000000E+00  8.593750E+00  0.000000E+00
  0.000000E+00  8.984375E+00  0.000000E+00
  0.000000E+00  9.375000E+00  0.000000E+00
  0.000000E+00  9.765625E+00  0.000000E+00
  0.000000E+00  1.015625E+01  0.000000E+00
  0.000000E+00  1.054688E+01  0.000000E+00
  0.000000E+00  1.093750E+01  0.000000E+00
  0.000000E+00  1.132812E+01  0.000000E+00
  0.000000E+00  1.171875E+01  0.000000E+00
  0.000000E+00  1.210938E+01  0.000000E+00
  0.000000E+00  1.250000E+01  0.000000E+00
  0.000000E+00  1.289062E+01  0.000000E+00
  0.000000E+00  1.328125E+01  0.000000E+00
  0.000000E+00  1.367188E+01  0.000000E+00
  0.000000E+00  1.406250E+01  0.000000E+00
  0.000000E+00  1.445312E+01  0.000000E+00
  0.000000E+00  1.484375E+01  0.000000E+00
  0.000000E+00  1.523438E+01  0.000000E+00
  0.000000E+00  1.562500E+01  0.000000E+00
  0.000000E+00  1.601562E+01  0.000000E+00
  0.000000E+00  1.640625E+01  0.000000E+00
  0.000000E+00  1.679688E+01  0.000000E+00
  0.000000E+00  1.718750E+01  0.000000E+00
  0.000000E+00  1.757812E+01  0.000000E+00
  0.000000E+00  1.796875E+01  0.000000E+00
  0.000000E+00  1.835938E+01  0.000000E+00
  0.000000E+00  1.875000E+01  0.000000E+00
  0.000000E+00  1.914062E+01  0.000000E+00
  0.000000E+00  1.953125E+01  0.000000E+00
  0.000000E+00  1.992188E+01  0.000000E+00
  0.000000E+00  2.031250E+01  0.000000E+00
  0.000000E+00  2.070312E+01  0.000000E+00
  0.000000E+00  2.109375E+01  0.000000E+00
  0.000000E+00  2.148438E+01  0.000000E+00
  0.000000E+00  2.187500E+01  0.000000E+00
  0.000000E+00  2.226562E+01  0.000000E+00
  0.000000E+00  2.265625E+01  0.000000E+00
  0.000000E+00  2.304688E+01  0.000000E+00
  0.000000E+00  2.343750E+01  0.000000E+00
  0.000000E+00  2.382812E+01  0.000000E+00
  0.000000E+00  2.421875E+01  0.000000E+00
  0.000000E+00  2.460938E+01  0.000000E+00
  3.906250E-01  0.000000E+00  0.000000E+00
  3.906250E-01  3.906250E-01  0.000000E+00
  3.906250E-01  7.812500E-01  0.000000E+00
  3.906250E-01  1.171875E+00  0.000000E+00
  3.906250E-01  1.562500E+00  0.000000E+00
  3.906250E-01  1.953125E+00  0.000000E+00
  3.906250E-01  2.343750E+00  0.000000E+00
  3.906250E-01  2.734375E+00  0.000000E+00
  3.906250E-01  3.125000E+00  0.000000E+00
  3.906250E-01  3.515625E+00  0.000000E+00
  3.906250E-01  3.906250E+00  0.000000E+00
  3.906250E-01  4.296875E+00  0.000000E+00
  3.906250E-01  4.687500E+00  0.000000E+00
  3.906250E-01  5.078125E+00  0.000000E+00
  3.906250E-01  5.468750E+00  0.000000E+00
  3.906250E-01  5.859375E+00  0.000000E+00
  3.906250E-01  6.250000E+00  0.000000E+00
  3.906250E-01  6.640625E+00  0.000000E+00
  3.906250E-01  7.031250E+00  0.000000E+00
  3.906250E-01  7.421875E+00  0.000000E+00
  3.906250E-01  7.812500E+00  0.000000E+00
  3.906250E-01  8.203125E+00  0.000000E+00
  3.906250E-01  8.593750E+00  0.000000E+00
  3.906250E-01  8.984375E+00  0.000000E+00
  3.906250E-01  9.375000E+00  0.000000E+00
  3.906250E-01  9.765625E+00  0.000000E+00
  3.906250E-01  1.015625E+01  0.000000E+00
  3.906250E-01  1.054688E+01  0.000000E+00
  3.906250E-01  1.093750E+01  0.000000E+00
  3.906250E-01  1.132812E+01  0.000000E+00
  3.906250E-01  1.171875E+01  0.000000E+00
  3.906250E-01  1.210938E+01  0.000000E+00
  3.906250E-01  1.250000E+01  0.000000E+00
  3.906250E-01  1.289062E+01  0.000000E+00
  3.906250E-01  1.328125E+01  0.000000E+00
  3.906250E-01  1.367188E+01  0.000000E+00
  3.906250E-01  1.406250E+01  0.000000E+00
  3.906250E-01  1.445312E+01  0.000000E+00
  3.906250E-01  1.484375E+01  0.000000E+00
  3.906250E-01  1.523438E+01  0.000000E+00
  3.906250E-01  1.562500E+01  0.000000E+00
  3.906250E-01  1.601562E+01  0.000000E+00
  3.906250E-01  1.640625E+01  0.000000E+00
  3.906250E-01  1.679688E+01  0.000000E+00
  3.906250E-01  1.718750E+01  0.000000E+00
  3.906250E-01  1.757812E+01  0.000000E+00
  3.906250E-01  1.796875E+01  0.000000E+00
  3.906250E-01  1.835938E+01  0.000000E+00
  3.906250E-01  1.875000E+01  0.000000E+00
  3.906250E-01  1.914062E+01  0.000000E+00
  3.906250E-01  1.953125E+01  0.000000E+00
  3.906250E-01  1.992188E+01  0.000000E+00
  3.906250E-01  2.031250E+01  0.000000E+00
  3.906250E-01  2.070312E+01  0.000000E+00
  3.906250E-01  2.109375E+01  0.000000E+00
  3.906250E-01  2.148438E+01  0.000000E+00
  3.906250E-01  2.187500E+01  0.000000E+00
  3.906250E-01  2.226562E+01  0.000000E+00
  3.906250E-01  2.265625E+01  0.000000E+00
  3.906250E-01  2.304688E+01  0.000000E+00
  3.906250E-01  2.343750E+01  0.000000E+00
  3.906250E-01  2.382812E+01  0.000000E+00
  3.906250E-01  2.421875E+01  0.000000E+00
  3.906250E-01  2.460938E+01  0.000000E+00
  7.812500E-01  0.000000E+00  0.000000E+00
  7.812500E-01  3.906250E-01  0.000000E+00
  7.812500E-01  7.812500E-01  0.000000E+00
  7.812500E-01  1.171875E+00  0.000000E+00
  7.812500E-01  1.562500E+00  0.000000E+00
  7.812500E-01  1.953125E+00  0.000000E+00
  7.812500E-01  2.343750E+00  0.000000E+00
  7.812500E-01  2.734375E+00  0.000000E+00
  7.812500E-01  3.125000E+00  0.000000E+00
  7.812500E-01  3.515625E+00  0.000000E+00
  7.812500E-01  3.906250E+00  0.000000E+00
  7.812500E-01  4.296875E+00  0.000000E+00
  7.812500E-01  4.687500E+00  0.000000E+00
  7.812500E-01  5.078125E+00  0.000000E+00
  7.812500E-01  5.468750E+00  0.000000E+00
  7.812500E-01  5.859375E+00  0.000000E+00
  7.812500E-01  6.250000E+00  0.000000E+00
  7.812500E-01  6.640625E+00  0.000000E+00
  7.812500E-01  7.031250E+00  0.000000E+00
  7.812500E-01  7.421875E+00  0.000000E+00
  7.812500E-01  7.812500E+00  0.000000E+00
  7.812500E-01  8.203125E+00  0.000000E+00
  7.812500E-01  8.593750E+00  0.000000E+00
  7.812500E-01  8.984375E+00  0.000000E+00
  7.812500E-01  9.375000E+00  0.000000E+00
  7.812500E-01  9.765625E+00  0.000000E+00
  7.812500E-01  1.015625E+01  0.000000E+00
  7.812500E-01  1.054688E+01  0.000000E+00
  7.812500E-01  1.093750E+01  0.000000E+00
  7.812500E-01  1.132812E+01  0.000000E+00
  7.812500E-01  1.171875E+01  0.000000E+00
  7.812500E-01  1.210938E+01  0.000000E+00
  7.812500E-01  1.250000E+01  0.000000E+00
  7.812500E-01  1.289062E+01  0.000000E+00
  7.812500E-01  1.328125E+01  0.000000E+00
  7.812500E-01  1.367188E+01  0.000000E+00
  7.812500E-01  1.406250E+01  0.000000E+00
  7.812500E-01  1.445312E+01  0.000000E+00
  7.812500E-01  1.484375E+01  0.000000E+00
  7.812500E-01  1.523438E+01  0.000000E+00
  7.812500E-01  1.562500E+01  0.000000E+00
  7.812500E-01  1.601562E+01  0.000000E+00
  7.812500E-01  1.640625E+01  0.000000E+00
  7.812500E-01  1.679688E+01  0.000000E+00
  7.812500E-01  1.718750E+01  0.000000E+00
  7.812500E-01  1.757812E+01  0.000000E+00
  7.812500E-01  1.796875E+01  0.000000E+00
  7.812500E-01  1.835938E+01  0.000000E+00
  7.812500E-01  1.875000E+01  0.000000E+00
  7.812500E-01  1.914062E+01  0.000000E+00
  7.812500E-01  1.953125E+01  0.000000E+00
  7.812500E-01  1.992188E+01  0.000000E+00
  7.812500E-01  2.031250E+01  0.000000E+00
  7.812500E-01  2.070312E+01  0.000000E+00
  7.812500E-01  2.109375E+01  0.000000E+00
  7.812500E-01  2.148438E+01  0.000000E+00
  7.812500E-01  2.187500E+01  0.000000E+00
  7.812500E-01  2.226562E+01  0.000000E+00
  7.812500E-01  2.265625E+01  0.000000E+00
  7.812500E-01  2.304688E+01  0.000000E+00
  7.812500E-01  2.343750E+01  0.000000E+00
  7.812500E-01  2.382812E+01  0.000000E+00
  7.812500E-01  2.421875E+01  0.000000E+00
  7.812500E-01  2.460938E+01  0.000000E+00
  1.171875E+00  0.000000E+00  0.000000E+00
  1.171875E+00  3.906250E-01  0.000000E+00
  1.171875E+00  7.812500E-01  0.000000E+00
  1.171875E+00  1.171875E+00  0.000000E+00
  1.171875E+00  1.562500E+00  0.000000E+00
  1.171875E+00  1.953125E+00  0.000000E+00
  1.171875E+00  2.343750E+00  0.000000E+00
  1.171875E+00  2.734375E+00  0.000000E+00
  1.171875E+00  3.125000E+00  0.000000E+00
  1.171875E+00  3.515625E+00  0.000000E+00
  1.171875E+00  3.906250E+00  0.000000E+00
  1.171875E+00  4.296875E+00  0.000000E+00
  1.171875E+00  4.687500E+00  0.000000E+00
  1.171875E+00  5.078125E+00  0.000000E+00
  1.171875E+00  5.468750E+00  0.000000E+00
  1.171875E+00  5.859375E+00  0.000000E+00
  1.171875E+00  6.250000E+00  0.000000E+00
  1.171875E+00  6.640625E+00  0.000000E+00
  1.171875E+00  7.031250E+00  0.000000E+00
  1.171875E+00  7.421875E+00  0.000000E+00
  1.171875E+00  7.812500E+00  0.000000E+00
  1.171875E+00  8.203125E+00  0.000000E+00
  1.171875E+00  8.593750E+00  0.000000E+00
  1.171875E+00  8.984375E+00  0.000000E+00
  1.171875E+00  9.375000E+00  0.000000E+00
  1.171875E+00  9.765625E+00  0.000000E+00
  1.171875E+00  1.015625E+01  0.000000E+00
  1.171875E+00  1.054688E+01  0.000000E+00
  1.171875E+00  1.093750E+01  0.000000E+00
  1.171875E+00  1.132812E+01  0.000000E+00
  1.171875E+00  1.171875E+01  0.000000E+00
  1.171875E+00  1.210938E+01  0.000000E+00
  1.171875E+00  1.250000E+01  0.000000E+00
  1.171875E+00  1.289062E+01  0.000000E+00
  1.171875E+00  1.328125E+01  0.000000E+00
  1.171875E+00  1.367188E+01  0.000000E+00
  1.171875E+00  1.406250E+01  0.000000E+00
  1.171875E+00  1.445312E+01  0.000000E+00
[...]
POINT_DATA   4096
SCALARS CON  float  1
LOOKUP_TABLE default
  4.707531E-01
  4.696388E-01
  4.751869E-01
  4.734450E-01
  4.737366E-01
  4.671846E-01
  4.683658E-01
  4.676144E-01
  4.733952E-01
  4.715338E-01
  4.722794E-01
  4.667629E-01
  4.679563E-01
  4.651336E-01
  4.683470E-01
  4.665849E-01
  4.711553E-01
  4.706446E-01
  4.743184E-01
  4.701525E-01
  4.699177E-01
  4.645104E-01
  4.657832E-01
  4.624078E-01
  4.643235E-01
  4.605613E-01
  4.631475E-01
  4.627289E-01
  4.700113E-01
  4.713934E-01
  4.745555E-01
  4.684066E-01
  4.675380E-01
  4.646803E-01
  4.704465E-01
  4.703258E-01
  4.723451E-01
  4.662368E-01
  4.657690E-01
  4.619035E-01
  4.649970E-01
  4.626474E-01
  4.649952E-01
  4.615590E-01
  4.637623E-01
  4.611344E-01
  4.653031E-01
  4.663262E-01
  4.742944E-01
  4.750104E-01
  4.763179E-01
  4.678992E-01
  4.648823E-01
  4.603539E-01
  4.662770E-01
  4.701837E-01
  4.795819E-01
  4.799870E-01
  4.811953E-01
  4.744036E-01
  4.739458E-01
  4.700628E-01
  4.722703E-01
  4.685040E-01
  4.705531E-01
  4.708879E-01
  4.785286E-01
  4.793038E-01
  4.788937E-01
  4.695822E-01
  4.665589E-01
  4.639086E-01
  4.692904E-01
  4.692020E-01
  4.714994E-01
  4.683924E-01
  4.708336E-01
  4.684652E-01
  4.693773E-01
  4.651611E-01
  4.678897E-01
  4.688876E-01
  4.749474E-01
  4.731289E-01
  4.722390E-01
  4.653868E-01
  4.650997E-01
  4.628702E-01
  4.666278E-01
  4.650171E-01
  4.670688E-01
  4.647462E-01
  4.687783E-01
  4.690812E-01
  4.728669E-01
  4.694041E-01
  4.694353E-01
  4.657629E-01
  4.683749E-01
  4.663913E-01
  4.680052E-01
  4.644157E-01
  4.664881E-01
  4.647583E-01
  4.669481E-01
  4.625332E-01
  4.620147E-01
  4.579503E-01
  4.602883E-01
  4.589647E-01
  4.635015E-01
  4.657914E-01
  4.748206E-01
  4.772302E-01
  4.783907E-01
  4.695060E-01
  4.656737E-01
  4.626695E-01
  4.704638E-01
  4.759537E-01
  4.836849E-01
  4.812197E-01
  4.789684E-01
  4.712294E-01
  4.709850E-01
  4.689322E-01
  4.718679E-01
  4.686767E-01
  4.635956E-01
  4.700444E-01
  4.790066E-01
  4.813605E-01
  4.788046E-01
  4.705316E-01
  4.662620E-01
  4.647362E-01
  4.683075E-01
  4.697602E-01
  4.716697E-01
  4.706893E-01
  4.716573E-01
  4.702699E-01
  4.701572E-01
  4.680561E-01
  4.693428E-01
  4.702181E-01
  4.731991E-01
  4.724403E-01
  4.716311E-01
  4.679683E-01
  4.669469E-01
  4.651430E-01
  4.661435E-01
  4.650970E-01
  4.656215E-01
  4.641870E-01
  4.654609E-01
  4.651041E-01
  4.659389E-01
  4.635971E-01
  4.636498E-01
  4.639907E-01
  4.683226E-01
  4.699344E-01
  4.705830E-01
  4.668979E-01
  4.654949E-01
  4.637555E-01
  4.645463E-01
  4.620081E-01
  4.600681E-01
  4.565311E-01
  4.571065E-01
  4.581573E-01
  4.632752E-01
  4.680761E-01
  4.752654E-01
  4.778232E-01
  4.772413E-01
  4.705598E-01
  4.662655E-01
  4.642930E-01
  4.693112E-01
  4.749553E-01
  4.815229E-01
  4.817000E-01
  4.786453E-01
  4.704854E-01
  4.647758E-01
  4.595766E-01
  4.589097E-01
  4.586183E-01
  4.628807E-01
  4.707839E-01
  4.776530E-01
  4.820406E-01
  4.768258E-01
  4.691150E-01
  4.612725E-01
  4.609705E-01
  4.630001E-01
  4.679018E-01
  4.698151E-01
  4.729410E-01
  4.733510E-01
  4.739958E-01
  4.703996E-01
  4.683592E-01
  4.666028E-01
  4.698654E-01
  4.720102E-01
  4.742190E-01
  4.717332E-01
  4.701995E-01
  4.676765E-01
  4.688706E-01
  4.689202E-01
  4.702917E-01
  4.679742E-01
  4.663625E-01
  4.631746E-01
  4.640009E-01
  4.647834E-01
  4.677715E-01
  4.674039E-01
  4.676807E-01
  4.655840E-01
  4.657054E-01
  4.642255E-01
  4.656295E-01
  4.663126E-01
  4.691167E-01
  4.677280E-01
  4.654010E-01
  4.605495E-01
  4.603725E-01
  4.613897E-01
  4.652187E-01
  4.660736E-01
  4.688097E-01
  4.706398E-01
  4.740920E-01
  4.722884E-01
  4.691782E-01
  4.645890E-01
  4.663977E-01
  4.707604E-01
  4.781598E-01
  4.804441E-01
  4.797063E-01
  4.730370E-01
  4.674847E-01
  4.617564E-01
  4.605160E-01
  4.588907E-01
  4.605436E-01
  4.603358E-01
  4.708157E-01
  4.745049E-01
  4.784746E-01
  4.707131E-01
  4.663892E-01
  4.588511E-01
  4.611095E-01
  4.608294E-01
  4.672711E-01
  4.678647E-01
  4.730688E-01
  4.709295E-01
  4.726831E-01
  4.679409E-01
  4.694831E-01
  4.668792E-01
  4.709762E-01
  4.693762E-01
  4.727122E-01
  4.698040E-01
  4.721868E-01
  4.683240E-01
  4.694312E-01
  4.648546E-01
  4.665610E-01
  4.630759E-01
  4.649443E-01
  4.610382E-01
  4.636565E-01
  4.620552E-01
  4.664911E-01
  4.644762E-01
  4.674047E-01
  4.649331E-01
  4.684024E-01
  4.657478E-01
  4.681258E-01
  4.651254E-01
  4.682005E-01
  4.648500E-01
  4.655977E-01
  4.607228E-01
  4.640264E-01
  4.647056E-01
  4.713351E-01
  4.697331E-01
  4.713039E-01
  4.669789E-01
  4.691755E-01
  4.656830E-01
  4.669701E-01
  4.627334E-01
  4.658548E-01
  4.655386E-01
  4.719759E-01
  4.721769E-01
  4.759623E-01
  4.712661E-01
  4.698725E-01
  4.618757E-01
  4.601172E-01
  4.547493E-01
  4.582895E-01
  4.653040E-01
  4.718343E-01
  4.720618E-01
  4.756487E-01
  4.679984E-01
  4.645852E-01
  4.562617E-01
  4.582203E-01
  4.570378E-01
  4.640269E-01
  4.647921E-01
  4.713235E-01
  4.693974E-01
  4.715320E-01
  4.655877E-01
  4.669988E-01
  4.645673E-01
  4.709951E-01
  4.709497E-01
  4.755301E-01
  4.713624E-01
  4.725761E-01
  4.668560E-01
  4.677357E-01
  4.627682E-01
  4.655316E-01
  4.624826E-01
  4.655446E-01
  4.618325E-01
  4.661984E-01
  4.665450E-01
  4.737494E-01
  4.711683E-01
  4.711185E-01
  4.633320E-01
  4.641914E-01
  4.616132E-01
  4.676007E-01
  4.674756E-01
  4.724007E-01
  4.676694E-01
  4.671950E-01
  4.617190E-01
  4.677016E-01
  4.708929E-01
  4.788727E-01
  4.743129E-01
  4.720035E-01
  4.637686E-01
  4.653055E-01
  4.621357E-01
  4.651063E-01
  4.613100E-01
  4.653603E-01
  4.644880E-01
  4.700943E-01
  4.675155E-01
  4.699820E-01
  4.657487E-01
  4.688800E-01
  4.660441E-01
  4.693400E-01
  4.652115E-01
  4.676362E-01
  4.648669E-01
  4.698139E-01
  4.694007E-01
  4.714882E-01
  4.662902E-01
  4.654676E-01
  4.607827E-01
  4.623862E-01
  4.604257E-01
  4.646906E-01
  4.648704E-01
  4.692575E-01
  4.667367E-01
  4.676422E-01
  4.641463E-01
  4.676739E-01
  4.682268E-01
  4.739557E-01
  4.733775E-01
  4.759569E-01
  4.723775E-01
  4.727697E-01
  4.667745E-01
  4.643859E-01
  4.577126E-01
  4.588446E-01
  4.582388E-01
  4.635494E-01
  4.632626E-01
  4.676495E-01
  4.678981E-01
  4.728203E-01
  4.704544E-01
  4.707070E-01
  4.663146E-01
  4.690323E-01
  4.682397E-01
  4.718303E-01
  4.691960E-01
  4.704146E-01
  4.657617E-01
  4.656427E-01
  4.622699E-01
  4.675835E-01
  4.711106E-01
  4.784839E-01
  4.757848E-01
  4.733242E-01
  4.653812E-01
  4.651452E-01
  4.626537E-01
  4.655183E-01
  4.626309E-01
  4.641625E-01
  4.611390E-01
  4.636521E-01
  4.619311E-01
  4.658818E-01
  4.655980E-01
  4.701525E-01
  4.685707E-01
  4.700605E-01
  4.655026E-01
  4.665581E-01
  4.668743E-01
  4.673453E-01
  4.674555E-01
  4.701938E-01
  4.690569E-01
  4.686205E-01
  4.652859E-01
  4.649874E-01
  4.635761E-01
  4.658151E-01
  4.664991E-01
  4.692809E-01
  4.682802E-01
  4.681565E-01
  4.655607E-01
  4.671934E-01
  4.692049E-01
  4.750847E-01
  4.773739E-01
  4.788330E-01
  4.748460E-01
  4.718018E-01
  4.662488E-01
  4.636125E-01
  4.600780E-01
  4.613582E-01
  4.623900E-01
  4.660236E-01
  4.664714E-01
  4.697315E-01
  4.724153E-01
  4.775856E-01
  4.769113E-01
  4.743374E-01
  4.685029E-01
  4.679866E-01
  4.684881E-01
  4.724090E-01
  4.727551E-01
  4.733334E-01
  4.693773E-01
  4.669553E-01
  4.641286E-01
  4.677616E-01
  4.717542E-01
  4.764179E-01
  4.738767E-01
  4.705177E-01
  4.658019E-01
  4.665161E-01
  4.662570E-01
  4.673316E-01
  4.649904E-01
  4.657778E-01
  4.656052E-01
  4.676299E-01
  4.655150E-01
  4.647086E-01
  4.629133E-01
  4.663171E-01
  4.690656E-01
  4.731793E-01
  4.719783E-01
  4.706896E-01
  4.617366E-01
  4.631494E-01
  4.650403E-01
  4.681201E-01
  4.698360E-01
  4.717932E-01
  4.719055E-01
  4.718528E-01
  4.703989E-01
  4.704557E-01
  4.703841E-01
  4.708824E-01
  4.691650E-01
  4.678250E-01
  4.668781E-01
  4.691755E-01
  4.721464E-01
  4.757916E-01
  4.766496E-01
  4.761259E-01
  4.731454E-01
  4.705406E-01
  4.667807E-01
  4.638766E-01
  4.611293E-01
  4.618658E-01
  4.641608E-01
  4.676382E-01
  4.685517E-01
  4.692805E-01
  4.697211E-01
  4.717895E-01
  4.721153E-01
  4.721768E-01
  4.718093E-01
  4.739355E-01
  4.752203E-01
  4.751804E-01
  4.717446E-01
  4.686669E-01
  4.658313E-01
  4.653586E-01
  4.650774E-01
  4.666351E-01
  4.677664E-01
  4.691979E-01
  4.682992E-01
  4.676573E-01
  4.670863E-01
  4.689020E-01
  4.698396E-01
  4.701027E-01
  4.680893E-01
  4.674092E-01
  4.673276E-01
  4.688330E-01
  4.684801E-01
  4.677230E-01
  4.659238E-01
  4.660904E-01
  4.661242E-01
  4.665085E-01
  4.646361E-01
  4.631254E-01
  4.620242E-01
  4.616204E-01
  4.638941E-01
  4.681841E-01
  4.712817E-01
  4.728061E-01
  4.722883E-01
  4.716576E-01
  4.709176E-01
  4.713176E-01
  4.718340E-01
  4.725398E-01
  4.716788E-01
  4.699872E-01
  4.676644E-01
  4.671986E-01
  4.687403E-01
  4.724282E-01
  4.750678E-01
  4.752773E-01
  4.720699E-01
  4.683266E-01
  4.653912E-01
  4.649825E-01
  4.660938E-01
  4.690163E-01
  4.716281E-01
  4.728994E-01
  4.713128E-01
  4.696108E-01
  4.694319E-01
  4.715494E-01
  4.725799E-01
  4.718903E-01
  4.701129E-01
  4.702517E-01
  4.712755E-01
  4.719985E-01
  4.704037E-01
  4.681611E-01
  4.659216E-01
  4.654593E-01
  4.660184E-01
  4.676444E-01
  4.679749E-01
  4.668635E-01
  4.644187E-01
  4.639970E-01
  4.662531E-01
  4.705120E-01
  4.725482E-01
  4.716284E-01
  4.690578E-01
  4.692500E-01
  4.721944E-01
  4.756956E-01
  4.751557E-01
  4.710806E-01
  4.659729E-01
  4.641871E-01
  4.652821E-01
  4.675505E-01
  4.673550E-01
  4.650952E-01
  4.592015E-01
  4.608256E-01
  4.631960E-01
  4.668366E-01
  4.693195E-01
  4.718268E-01
  4.723798E-01
  4.725235E-01
  4.713644E-01
  4.716331E-01
  4.718431E-01
  4.723756E-01
  4.705071E-01
  4.684176E-01
  4.662126E-01
  4.666845E-01
  4.680390E-01
  4.707869E-01
  4.719797E-01
  4.722543E-01
  4.699320E-01
  4.675695E-01
  4.647715E-01
  4.641101E-01
  4.646782E-01
  4.682040E-01
  4.717411E-01
  4.742895E-01
  4.724787E-01
  4.690068E-01
  4.651058E-01
  4.641958E-01
  4.644058E-01
  4.665271E-01
  4.687307E-01
  4.720745E-01
  4.730685E-01
  4.715184E-01
  4.663626E-01
  4.622005E-01
  4.602640E-01
  4.625197E-01
  4.652488E-01
  4.674343E-01
  4.664032E-01
  4.648930E-01
  4.634939E-01
  4.653558E-01
  4.685361E-01
  4.724900E-01
  4.731492E-01
  4.715662E-01
  4.681533E-01
  4.674323E-01
  4.689378E-01
  4.726582E-01
  4.741512E-01
  4.736787E-01
  4.706621E-01
  4.685655E-01
  4.663934E-01
  4.650352E-01
  4.622989E-01
  4.604496E-01
  4.626733E-01
  4.628894E-01
  4.639495E-01
  4.678800E-01
  4.693481E-01
  4.706234E-01
  4.686592E-01
  4.680106E-01
  4.664541E-01
  4.679235E-01
  4.687058E-01
  4.709334E-01
  4.698637E-01
  4.685703E-01
  4.649115E-01
  4.642744E-01
  4.647215E-01
  4.692847E-01
  4.723800E-01
  4.746502E-01
  4.716102E-01
  4.681585E-01
  4.637273E-01
  4.637098E-01
  4.651103E-01
  4.702292E-01
  4.735912E-01
  4.761414E-01
  4.734825E-01
  4.706576E-01
  4.671233E-01
  4.673699E-01
  4.667144E-01
  4.670514E-01
  4.653919E-01
  4.663740E-01
  4.665855E-01
  4.678644E-01
  4.657696E-01
  4.643793E-01
  4.620829E-01
  4.634889E-01
  4.650354E-01
  4.684603E-01
  4.685495E-01
  4.683292E-01
  4.661488E-01
  4.675791E-01
  4.695098E-01
  4.729540E-01
  4.717351E-01
  4.690773E-01
  4.646121E-01
  4.650712E-01
  4.675894E-01
  4.727384E-01
  4.738414E-01
  4.735801E-01
  4.706404E-01
  4.706060E-01
  4.701871E-01
  4.710982E-01
  4.685615E-01
  4.662784E-01
  4.611739E-01
  4.640038E-01
  4.644319E-01
  4.676355E-01
  4.678514E-01
  4.703837E-01
  4.688006E-01
  4.686901E-01
  4.655572E-01
  4.666385E-01
  4.663586E-01
  4.687401E-01
  4.665994E-01
  4.661287E-01
  4.635351E-01
  4.656923E-01
  4.665585E-01
  4.707266E-01
  4.716026E-01
  4.741407E-01
  4.719364E-01
  4.705815E-01
  4.652886E-01
  4.634754E-01
  4.611797E-01
  4.647366E-01
  4.674007E-01
  4.723215E-01
  4.715570E-01
  4.707356E-01
  4.661223E-01
  4.654268E-01
  4.635493E-01
  4.657350E-01
  4.658647E-01
  4.690846E-01
  4.685721E-01
  4.689066E-01
  4.646669E-01
  4.633641E-01
  4.611518E-01
  4.639194E-01
  4.646329E-01
  4.674645E-01
  4.664423E-01
  4.681367E-01
  4.677547E-01
  4.708836E-01
  4.707276E-01
  4.717413E-01
  4.678858E-01
  4.658817E-01
  4.617785E-01
  4.625165E-01
  4.625870E-01
  4.668924E-01
  4.687289E-01
  4.729584E-01
  4.732315E-01
  4.746244E-01
  4.710415E-01
  4.687041E-01
  4.634588E-01
  4.626464E-01
  4.650831E-01
  4.662071E-01
  4.656646E-01
  4.685898E-01
  4.688167E-01
  4.703548E-01
  4.675566E-01
  4.664772E-01
  4.633272E-01
  4.643284E-01
  4.641434E-01
  4.668212E-01
  4.659119E-01
  4.664571E-01
  4.642215E-01
  4.656138E-01
  4.659191E-01
  4.700312E-01
  4.718073E-01
  4.751551E-01
  4.736027E-01
  4.722412E-01
  4.670773E-01
  4.651819E-01
  4.625994E-01
  4.647564E-01
  4.657207E-01
  4.693289E-01
  4.691483E-01
  4.704196E-01
  4.689656E-01
  4.705837E-01
  4.692270E-01
  4.691273E-01
  4.654985E-01
  4.651480E-01
  4.638413E-01
  4.663760E-01
  4.664869E-01
  4.686231E-01
  4.672732E-01
  4.678977E-01
  4.660117E-01
  4.675152E-01
  4.670900E-01
  4.692224E-01
  4.681889E-01
  4.693332E-01
  4.675121E-01
  4.675443E-01
  4.639714E-01
  4.629483E-01
  4.609676E-01
  4.640384E-01
  4.658948E-01
  4.697901E-01
  4.695003E-01
  4.708337E-01
  4.695373E-01
  4.709786E-01
  4.693512E-01
  4.696410E-01
  4.670076E-01
  4.671596E-01
  4.657689E-01
  4.673440E-01
  4.666865E-01
  4.667669E-01
  4.673778E-01
  4.694051E-01
  4.697569E-01
  4.690099E-01
  4.666382E-01
  4.656314E-01
  4.649777E-01
  4.651798E-01
  4.642196E-01
  4.644207E-01
  4.655459E-01
  4.685607E-01
  4.701549E-01
  4.708089E-01
  4.702678E-01
  4.715038E-01
  4.726988E-01
  4.732323E-01
  4.702590E-01
  4.659789E-01
  4.612240E-01
  4.594963E-01
  4.600658E-01
  4.632920E-01
  4.655877E-01
  4.667802E-01
  4.657047E-01
  4.653646E-01
  4.654391E-01
  4.671423E-01
  4.681200E-01
  4.690213E-01
  4.681339E-01
  4.672691E-01
  4.659726E-01
  4.664815E-01
  4.670731E-01
  4.679561E-01
  4.669424E-01
  4.661191E-01
  4.653634E-01
  4.664858E-01
  4.670638E-01
  4.672455E-01
  4.652842E-01
  4.634707E-01
  4.617379E-01
  4.624975E-01
  4.642037E-01
  4.669833E-01
  4.679595E-01
  4.683074E-01
  4.676410E-01
  4.682313E-01
  4.680567E-01
  4.672409E-01
  4.641737E-01
  4.619541E-01
  4.611735E-01
  4.635246E-01
  4.736133E-01
  4.709856E-01
  4.688338E-01
  4.664856E-01
  4.674966E-01
  4.674841E-01
  4.683741E-01
  4.669904E-01
  4.669956E-01
  4.656137E-01
  4.658792E-01
  4.645864E-01
  4.651128E-01
  4.649741E-01
  4.675589E-01
  4.690445E-01
  4.712604E-01
  4.707052E-01
  4.715242E-01
  4.715896E-01
  4.734508E-01
  4.724262E-01
  4.708891E-01
  4.664930E-01
  4.637861E-01
  4.608561E-01
  4.613817E-01
  4.619236E-01
  4.643325E-01
  4.644944E-01
  4.658306E-01
  4.662220E-01
  4.687344E-01
  4.689764E-01
  4.690764E-01
  4.664216E-01
  4.655939E-01
  4.646817E-01
  4.669412E-01
  4.682272E-01
  4.700348E-01
  4.685449E-01
  4.679759E-01
  4.669380E-01
  4.686778E-01
  4.683397E-01
  4.675603E-01
  4.638470E-01
  4.622168E-01
  4.607601E-01
  4.625008E-01
  4.640349E-01
  4.683106E-01
  4.713232E-01
  4.742029E-01
  4.722729E-01
  4.691963E-01
  4.639977E-01
  4.615598E-01
  4.593503E-01
  4.606303E-01
  4.626307E-01
  4.679675E-01
  4.714240E-01
  4.763357E-01
  4.739564E-01
  4.703216E-01
  4.654294E-01
  4.652529E-01
  4.656625E-01
  4.684288E-01
  4.684677E-01
  4.693677E-01
  4.678353E-01
  4.675155E-01
  4.645472E-01
  4.635257E-01
  4.627611E-01
  4.669845E-01
  4.707592E-01
  4.743492E-01
  4.724990E-01
  4.709445E-01
  4.690601E-01
  4.711157E-01
  4.711439E-01
  4.705050E-01
  4.654396E-01
  4.616647E-01
  4.578887E-01
  4.590101E-01
  4.605794E-01
  4.638044E-01
  4.629588E-01
  4.623250E-01
  4.609716E-01
  4.644529E-01
  4.680547E-01
  4.725805E-01
  4.722254E-01
  4.708459E-01
  4.665963E-01
  4.651889E-01
  4.637902E-01
  4.654693E-01
  4.654407E-01
  4.670776E-01
  4.671628E-01
  4.693469E-01
  4.687391E-01
  4.679398E-01
  4.638507E-01
  4.621781E-01
  4.609186E-01
  4.639722E-01
  4.667306E-01
  4.713657E-01
  4.724256E-01
  4.723876E-01
  4.679891E-01
  4.649434E-01
  4.612531E-01
  4.605706E-01
  4.584447E-01
  4.589688E-01
  4.601911E-01
  4.664823E-01
  4.719353E-01
  4.810202E-01
  4.765869E-01
  4.714063E-01
  4.668733E-01
  4.655391E-01
  4.645524E-01
  4.648878E-01
  4.648049E-01
  4.661291E-01
  4.663816E-01
  4.665095E-01
  4.646303E-01
  4.635412E-01
  4.628888E-01
  4.651694E-01
  4.677142E-01
  4.704051E-01
  4.702593E-01
  4.697572E-01
  4.685728E-01
  4.690307E-01
  4.685865E-01
  4.681676E-01
  4.658758E-01
  4.642150E-01
  4.624692E-01
  4.632314E-01
  4.643241E-01
  4.659458E-01
  4.652545E-01
  4.651949E-01
  4.661097E-01
  4.700205E-01
  4.726768E-01
  4.732969E-01
  4.700682E-01
  4.671398E-01
  4.649200E-01
  4.655452E-01
  4.658885E-01
  4.663784E-01
  4.654501E-01
  4.666042E-01
  4.689270E-01
  4.723598E-01
  4.718457E-01
  4.682462E-01
  4.625539E-01
  4.603165E-01
  4.609393E-01
  4.646029E-01
  4.675158E-01
  4.706685E-01
  4.718825E-01
  4.720786E-01
  4.688731E-01
  4.650766E-01
  4.609041E-01
  4.594953E-01
  4.593314E-01
  4.624148E-01
  4.672842E-01
  4.747114E-01
  4.797492E-01
  4.762165E-01
  4.740330E-01
  4.704919E-01
  4.661128E-01
  4.647422E-01
  4.640756E-01
  4.650406E-01
  4.647498E-01
  4.654027E-01
  4.650865E-01
  4.654505E-01
  4.637158E-01
  4.624316E-01
  4.612241E-01
  4.634935E-01
  4.661111E-01
  4.684549E-01
  4.667929E-01
  4.646084E-01
  4.626555E-01
  4.644207E-01
  4.664849E-01
  4.684580E-01
  4.668915E-01
  4.648591E-01
  4.625791E-01
  4.638588E-01
  4.659393E-01
  4.683226E-01
  4.670388E-01
  4.655119E-01
  4.648158E-01
  4.684385E-01
  4.721356E-01
  4.747141E-01
  4.727900E-01
  4.698920E-01
  4.659918E-01
  4.643192E-01
  4.628048E-01
  4.632904E-01
  4.636472E-01
  4.661295E-01
  4.682090E-01
  4.705549E-01
  4.693589E-01
  4.665933E-01
  4.620764E-01
  4.603950E-01
  4.604744E-01
  4.636243E-01
  4.661715E-01
  4.688271E-01
  4.685360E-01
  4.673775E-01
  4.645706E-01
  4.642593E-01
  4.650748E-01
  4.676797E-01
  4.679550E-01
  4.679722E-01
  4.676448E-01
  4.706653E-01
  4.737929E-01
  4.737807E-01
  4.698243E-01
  4.695460E-01
  4.662707E-01
  4.671984E-01
  4.640434E-01
  4.642220E-01
  4.608831E-01
  4.621301E-01
  4.605534E-01
  4.633148E-01
  4.625141E-01
  4.652813E-01
  4.639281E-01
  4.659435E-01
  4.637691E-01
  4.647350E-01
  4.613745E-01
  4.618783E-01
  4.598789E-01
  4.635046E-01
  4.647755E-01
  4.696595E-01
  4.691744E-01
  4.707325E-01
  4.681547E-01
  4.703787E-01
  4.696883E-01
  4.720516E-01
  4.692879E-01
  4.705243E-01
  4.700413E-01
  4.745023E-01
  4.732742E-01
  4.722083E-01
  4.656032E-01
  4.643394E-01
  4.623774E-01
  4.659411E-01
  4.653711E-01
  4.672627E-01
  4.650904E-01
  4.679492E-01
  4.684167E-01
  4.719040E-01
  4.685412E-01
  4.660960E-01
  4.599139E-01
  4.601296E-01
  4.594114E-01
  4.635223E-01
  4.636208E-01
  4.670838E-01
  4.666174E-01
  4.695355E-01
  4.682558E-01
  4.709345E-01
  4.706352E-01
  4.743698E-01
  4.733827E-01
  4.749532E-01
  4.725294E-01
  4.745014E-01
  4.727885E-01
  4.664083E-01
  4.648959E-01
  4.685672E-01
  4.652897E-01
  4.680299E-01
  4.649004E-01
  4.675144E-01
  4.630770E-01
  4.641818E-01
  4.599409E-01
  4.633176E-01
  4.618287E-01
  4.667588E-01
  4.654477E-01
  4.697781E-01
  4.667758E-01
  4.677857E-01
  4.609713E-01
  4.606146E-01
  4.571036E-01
  4.633249E-01
  4.652911E-01
  4.719749E-01
  4.692952E-01
  4.705085E-01
  4.661619E-01
  4.701713E-01
  4.693105E-01
  4.732239E-01
  4.685975E-01
  4.694450E-01
  4.660264E-01
  4.706181E-01
  4.687469E-01
  4.709689E-01
  4.657758E-01
  4.670256E-01
  4.630912E-01
  4.656369E-01
  4.623559E-01
  4.660013E-01
  4.647415E-01
  4.700613E-01
  4.684510E-01
  4.711982E-01
  4.662059E-01
  4.667593E-01
  4.618475E-01
  4.641322E-01