# vtk DataFile Version 2.0
title
ASCII
DATASET STRUCTURED_GRID
DIMENSIONS   64   64    1
POINTS   4096  float
  0.000000E+00  0.000000E+00  0.000000E+00
  0.000000E+00  3.906250E-01  0.000000E+00
  0.000000E+00  7.812500E-01  0.000000E+00
  0.000000E+00  1.171875E+00  0.000000E+00
  0.000000E+00  1.562500E+00  0.000000E+00
  0.000000E+00  1.953125E+00  0.000000E+00
  0.000000E+00  2.343750E+00  0.000000E+00
  0.000000E+00  2.734375E+00  0.000000E+00
  0.000000E+00  3.125000E+00  0.000000E+00
  0.000000E+00  3.515625E+00  0.000000E+00
  0.000000E+00  3.906250E+00  0.000000E+00
  0.000000E+00  4.296875E+00  0.000000E+00
  0.000000E+00  4.687500E+00  0.000000E+00
  0.000000E+00  5.078125E+00  0.000000E+00
  0.000000E+00  5.468750E+00  0.000000E+00
  0.000000E+00  5.859375E+00  0.000000E+00
  0.000000E+00  6.250000E+00  0.000000E+00
  0.000000E+00  6.640625E+00  0.000000E+00
  0.000000E+00  7.031250E+00  0.000000E+00
  0.000000E+00  7.421875E+00  0.000000E+00
  0.000000E+00  7.812500E+00  0.000000E+00
  0.000000E+00  8.203125E+00  0.000000E+00
  0.000000E+00  8.593750E+00  0.000000E+00
  0.000000E+00  8.984375E+00  0.000000E+00
  0.000000E+00  9.375000E+00  0.000000E+00
  0.000000E+00  9.765625E+00  0.000000E+00
  0.000000E+00  1.015625E+01  0.000000E+00
  0.000000E+00  1.054688E+01  0.000000E+00
  0.000000E+00  1.093750E+01  0.000000E+00
  0.000000E+00  1.132812E+01  0.000000E+00
  0.000000E+00  1.171875E+01  0.000000E+00
  0.000000E+00  1.210938E+01  0.000000E+00
  0.000000E+00  1.250000E+01  0.000000E+00
  0.000000E+00  1.289062E+01  0.000000E+00
  0.000000E+00  1.328125E+01  0.000000E+00
  0.000000E+00  1.367188E+01  0.000000E+00
  0.000000E+00  1.406250E+01  0.000000E+00
  0.000000E+00  1.445312E+01  0.000000E+00
  0.000000E+00  1.484375E+01  0.000000E+00
  0.000000E+00  1.523438E+01  0.000000E+00
  0.000000E+00  1.562500E+01  0.000000E+00
  0.000000E+00  1.601562E+01  0.000000E+00
  0.000000E+00  1.640625E+01  0.000000E+00
  0.000000E+00  1.679688E+01  0.000000E+00
  0.000000E+00  1.718750E+01  0.000000E+00
  0.000000E+00  1.757812E+01  0.000000E+00
  0.000000E+00  1.796875E+01  0.000000E+00
  0.000000E+00  1.835938E+01  0.000000E+00
  0.000000E+00  1.875000E+01  0.000000E+00
  0.000000E+00  1.914062E+01  0.000000E+00
  0.000000E+00  1.953125E+01  0.000000E+00
  0.000000E+00  1.992188E+01  0.000000E+00
  0.000000E+00  2.031250E+01  0.000000E+00
  0.000000E+00  2.070312E+01  0.000000E+00
  0.000000E+00  2.109375E+01  0.000000E+00
  0.000000E+00  2.148438E+01  0.000000E+00
  0.000000E+00  2.187500E+01  0.000000E+00
  0.000000E+00  2.226562E+01  0.000000E+00
  0.000000E+00  2.265625E+01  0.000000E+00
  0.000000E+00  2.304688E+01  0.000000E+00
  0.000000E+00  2.343750E+01  0.000000E+00
  0.000000E+00  2.382812E+01  0.000000E+00
  0.000000E+00  2.421875E+01  0.000000E+00
  0.000000E+00  2.460938E+01  0.000000E+00
  3.906250E-01  0.000000E+00  0.000000E+00
  3.906250E-01  3.906250E-01  0.000000E+00
  3.906250E-01  7.812500E-01  0.000000E+00
  3.906250E-01  1.171875E+00  0.000000E+00
  3.906250E-01  1.562500E+00  0.000000E+00
  3.906250E-01  1.953125E+00  0.000000E+00
  3.906250E-01  2.343750E+00  0.000000E+00
  3.906250E-01  2.734375E+00  0.000000E+00
  3.906250E-01  3.125000E+00  0.000000E+00
  3.906250E-01  3.515625E+00  0.000000E+00
  3.906250E-01  3.906250E+00  0.000000E+00
  3.906250E-01  4.296875E+00  0.000000E+00
  3.906250E-01  4.687500E+00  0.000000E+00
  3.906250E-01  5.078125E+00  0.000000E+00
  3.906250E-01  5.468750E+00  0.000000E+00
  3.906250E-01  5.859375E+00  0.000000E+00
  3.906250E-01  6.250000E+00  0.000000E+00
  3.906250E-01  6.640625E+00  0.000000E+00
  3.906250E-01  7.031250E+00  0.000000E+00
  3.906250E-01  7.421875E+00  0.000000E+00
  3.906250E-01  7.812500E+00  0.000000E+00
  3.906250E-01  8.203125E+00  0.000000E+00
  3.906250E-01  8.593750E+00  0.000000E+00
  3.906250E-01  8.984375E+00  0.000000E+00
  3.906250E-01  9.375000E+00  0.000000E+00
  3.906250E-01  9.765625E+00  0.000000E+00
  3.906250E-01  1.015625E+01  0.000000E+00
  3.906250E-01  1.054688E+01  0.000000E+00
  3.906250E-01  1.093750E+01  0.000000E+00
  3.906250E-01  1.132812E+01  0.000000E+00
  3.906250E-01  1.171875E+01  0.000000E+00
  3.906250E-01  1.210938E+01  0.000000E+00
  3.906250E-01  1.250000E+01  0.000000E+00
  3.906250E-01  1.289062E+01  0.000000E+00
  3.906250E-01  1.328125E+01  0.000000E+00
  3.906250E-01  1.367188E+01  0.000000E+00
  3.906250E-01  1.406250E+01  0.000000E+00
  3.906250E-01  1.445312E+01  0.000000E+00
  3.906250E-01  1.484375E+01  0.000000E+00
  3.906250E-01  1.523438E+01  0.000000E+00
  3.906250E-01  1.562500E+01  0.000000E+00
  3.906250E-01  1.601562E+01  0.000000E+00
  3.906250E-01  1.640625E+01  0.000000E+00
  3.906250E-01  1.679688E+01  0.000000E+00
  3.906250E-01  1.718750E+01  0.000000E+00
  3.906250E-01  1.757812E+01  0.000000E+00
  3.906250E-01  1.796875E+01  0.000000E+00
  3.906250E-01  1.835938E+01  0.000000E+00
  3.906250E-01  1.875000E+01  0.000000E+00
  3.906250E-01  1.914062E+01  0.000000E+00
  3.906250E-01  1.953125E+01  0.000000E+00
  3.906250E-01  1.992188E+01  0.000000E+00
  3.906250E-01  2.031250E+01  0.000000E+00
  3.906250E-01  2.070312E+01  0.000000E+00
  3.906250E-01  2.109375E+01  0.000000E+00
  3.906250E-01  2.148438E+01  0.000000E+00
  3.906250E-01  2.187500E+01  0.000000E+00
  3.906250E-01  2.226562E+01  0.000000E+00
  3.906250E-01  2.265625E+01  0.000000E+00
  3.906250E-01  2.304688E+01  0.000000E+00
  3.906250E-01  2.343750E+01  0.000000E+00
  3.906250E-01  2.382812E+01  0.000000E+00
  3.906250E-01  2.421875E+01  0.000000E+00
  3.906250E-01  2.460938E+01  0.000000E+00
  7.812500E-01  0.000000E+00  0.000000E+00
  7.812500E-01  3.906250E-01  0.000000E+00
  7.812500E-01  7.812500E-01  0.000000E+00
  7.812500E-01  1.171875E+00  0.000000E+00
  7.812500E-01  1.562500E+00  0.000000E+00
  7.812500E-01  1.953125E+00  0.000000E+00
  7.812500E-01  2.343750E+00  0.000000E+00
  7.812500E-01  2.734375E+00  0.000000E+00
  7.812500E-01  3.125000E+00  0.000000E+00
  7.812500E-01  3.515625E+00  0.000000E+00
  7.812500E-01  3.906250E+00  0.000000E+00
  7.812500E-01  4.296875E+00  0.000000E+00
  7.812500E-01  4.687500E+00  0.000000E+00
  7.812500E-01  5.078125E+00  0.000000E+00
  7.812500E-01  5.468750E+00  0.000000E+00
  7.812500E-01  5.859375E+00  0.000000E+00
  7.812500E-01  6.250000E+00  0.000000E+00
  7.812500E-01  6.640625E+00  0.000000E+00
  7.812500E-01  7.031250E+00  0.000000E+00
  7.812500E-01  7.421875E+00  0.000000E+00
  7.812500E-01  7.812500E+00  0.000000E+00
  7.812500E-01  8.203125E+00  0.000000E+00
  7.812500E-01  8.593750E+00  0.000000E+00
  7.812500E-01  8.984375E+00  0.000000E+00
  7.812500E-01  9.375000E+00  0.000000E+00
  7.812500E-01  9.765625E+00  0.000000E+00
  7.812500E-01  1.015625E+01  0.000000E+00
  7.812500E-01  1.054688E+01  0.000000E+00
  7.812500E-01  1.093750E+01  0.000000E+00
  7.812500E-01  1.132812E+01  0.000000E+00
  7.812500E-01  1.171875E+01  0.000000E+00
  7.812500E-01  1.210938E+01  0.000000E+00
  7.812500E-01  1.250000E+01  0.000000E+00
  7.812500E-01  1.289062E+01  0.000000E+00
  7.812500E-01  1.328125E+01  0.000000E+00
  7.812500E-01  1.367188E+01  0.000000E+00
  7.812500E-01  1.406250E+01  0.000000E+00
  7.812500E-01  1.445312E+01  0.000000E+00
  7.812500E-01  1.484375E+01  0.000000E+00
  7.812500E-01  1.523438E+01  0.000000E+00
  7.812500E-01  1.562500E+01  0.000000E+00
  7.812500E-01  1.601562E+01  0.000000E+00
  7.812500E-01  1.640625E+01  0.000000E+00
  7.812500E-01  1.679688E+01  0.000000E+00
  7.812500E-01  1.718750E+01  0.000000E+00
  7.812500E-01  1.757812E+01  0.000000E+00
  7.812500E-01  1.796875E+01  0.000000E+00
  7.812500E-01  1.835938E+01  0.000000E+00
  7.812500E-01  1.875000E+01  0.000000E+00
  7.812500E-01  1.914062E+01  0.000000E+00
  7.812500E-01  1.953125E+01  0.000000E+00
  7.812500E-01  1.992188E+01  0.000000E+00
  7.812500E-01  2.031250E+01  0.000000E+00
  7.812500E-01  2.070312E+01  0.000000E+00
  7.812500E-01  2.109375E+01  0.000000E+00
  7.812500E-01  2.148438E+01  0.000000E+00
  7.812500E-01  2.187500E+01  0.000000E+00
  7.812500E-01  2.226562E+01  0.000000E+00
  7.812500E-01  2.265625E+01  0.000000E+00
  7.812500E-01  2.304688E+01  0.000000E+00
  7.812500E-01  2.343750E+01  0.000000E+00
  7.812500E-01  2.382812E+01  0.000000E+00
  7.812500E-01  2.421875E+01  0.000000E+00
  7.812500E-01  2.460938E+01  0.000000E+00
  1.171875E+00  0.000000E+00  0.000000E+00
  1.171875E+00  3.906250E-01  0.000000E+00
  1.171875E+00  7.812500E-01  0.000000E+00
  1.171875E+00  1.171875E+00  0.000000E+00
  1.171875E+00  1.562500E+00  0.000000E+00
  1.171875E+00  1.953125E+00  0.000000E+00
  1.171875E+00  2.343750E+00  0.000000E+00
  1.171875E+00  2.734375E+00  0.000000E+00
  1.171875E+00  3.125000E+00  0.000000E+00
  1.171875E+00  3.515625E+00  0.000000E+00
  1.171875E+00  3.906250E+00  0.000000E+00
  1.171875E+00  4.296875E+00  0.000000E+00
  1.171875E+00  4.687500E+00  0.000000E+00
  1.171875E+00  5.078125E+00  0.000000E+00
  1.171875E+00  5.468750E+00  0.000000E+00
  1.171875E+00  5.859375E+00  0.000000E+00
  1.171875E+00  6.250000E+00  0.000000E+00
  1.171875E+00  6.640625E+00  0.000000E+00
  1.171875E+00  7.031250E+00  0.000000E+00
  1.171875E+00  7.421875E+00  0.000000E+00
  1.171875E+00  7.812500E+00  0.000000E+00
  1.171875E+00  8.203125E+00  0.000000E+00
  1.171875E+00  8.593750E+00  0.000000E+00
  1.171875E+00  8.984375E+00  0.000000E+00
  1.171875E+00  9.375000E+00  0.000000E+00
  1.171875E+00  9.765625E+00  0.000000E+00
  1.171875E+00  1.015625E+01  0.000000E+00
  1.171875E+00  1.054688E+01  0.000000E+00
  1.171875E+00  1.093750E+01  0.000000E+00
  1.171875E+00  1.132812E+01  0.000000E+00
  1.171875E+00  1.171875E+01  0.000000E+00
  1.171875E+00  1.210938E+01  0.000000E+00
  1.171875E+00  1.250000E+01  0.000000E+00
  1.171875E+00  1.289062E+01  0.000000E+00
  1.171875E+00  1.328125E+01  0.000000E+00
  1.171875E+00  1.367188E+01  0.000000E+00
  1.171875E+00  1.406250E+01  0.000000E+00
  1.171875E+00  1.445312E+01  0.000000E+00
[...]
POINT_DATA   4096
SCALARS CON  float  1
LOOKUP_TABLE default
  4.714937E-01
  4.727116E-01
  4.798026E-01
  4.758148E-01
  4.761349E-01
  4.684772E-01
  4.706855E-01
  4.687012E-01
  4.755984E-01
  4.735816E-01
  4.759434E-01
  4.684210E-01
  4.682921E-01
  4.628967E-01
  4.679115E-01
  4.676538E-01
  4.750597E-01
  4.732651E-01
  4.763434E-01
  4.698755E-01
  4.702376E-01
  4.636398E-01
  4.651313E-01
  4.594739E-01
  4.615079E-01
  4.573601E-01
  4.629992E-01
  4.637672E-01
  4.728137E-01
  4.725549E-01
  4.762835E-01
  4.698716E-01
  4.709655E-01
  4.668560E-01
  4.723875E-01
  4.705563E-01
  4.740682E-01
  4.675755E-01
  4.674882E-01
  4.608193E-01
  4.631980E-01
  4.591683E-01
  4.623927E-01
  4.575449E-01
  4.601806E-01
  4.572342E-01
  4.649688E-01
  4.684139E-01
  4.797512E-01
  4.798107E-01
  4.808370E-01
  4.690367E-01
  4.643213E-01
  4.572352E-01
  4.651367E-01
  4.716058E-01
  4.863218E-01
  4.885845E-01
  4.910513E-01
  4.804563E-01
  4.758875E-01
  4.657656E-01
  4.666372E-01
  4.638733E-01
  4.720363E-01
  4.749786E-01
  4.835690E-01
  4.820380E-01
  4.813802E-01
  4.714239E-01
  4.686573E-01
  4.637755E-01
  4.690167E-01
  4.698248E-01
  4.757430E-01
  4.729765E-01
  4.740593E-01
  4.680199E-01
  4.687666E-01
  4.653200E-01
  4.701697E-01
  4.699160E-01
  4.748166E-01
  4.710494E-01
  4.711411E-01
  4.645530E-01
  4.653763E-01
  4.619640E-01
  4.657649E-01
  4.635255E-01
  4.672012E-01
  4.651601E-01
  4.701812E-01
  4.696737E-01
  4.747739E-01
  4.720932E-01
  4.737285E-01
  4.680812E-01
  4.685172E-01
  4.637017E-01
  4.662960E-01
  4.637909E-01
  4.675536E-01
  4.642434E-01
  4.654693E-01
  4.593109E-01
  4.590291E-01
  4.536178E-01
  4.561189E-01
  4.551055E-01
  4.631620E-01
  4.675818E-01
  4.781239E-01
  4.786658E-01
  4.792032E-01
  4.690504E-01
  4.657726E-01
  4.623042E-01
  4.723315E-01
  4.803057E-01
  4.922262E-01
  4.907303E-01
  4.882139E-01
  4.763501E-01
  4.719872E-01
  4.647429E-01
  4.666236E-01
  4.649663E-01
  4.638143E-01
  4.740054E-01
  4.841095E-01
  4.855822E-01
  4.816945E-01
  4.720430E-01
  4.659595E-01
  4.626795E-01
  4.660665E-01
  4.695803E-01
  4.743028E-01
  4.744307E-01
  4.740154E-01
  4.703440E-01
  4.691008E-01
  4.673411E-01
  4.691412E-01
  4.696541E-01
  4.717841E-01
  4.707721E-01
  4.707229E-01
  4.682154E-01
  4.677973E-01
  4.655711E-01
  4.654889E-01
  4.636857E-01
  4.645339E-01
  4.641694E-01
  4.661197E-01
  4.654687E-01
  4.657487E-01
  4.634531E-01
  4.638263E-01
  4.637209E-01
  4.668264E-01
  4.677650E-01
  4.692601E-01
  4.670310E-01
  4.658057E-01
  4.623276E-01
  4.608270E-01
  4.571943E-01
  4.555911E-01
  4.527642E-01
  4.537958E-01
  4.556500E-01
  4.624483E-01
  4.690379E-01
  4.768295E-01
  4.787122E-01
  4.772467E-01
  4.700124E-01
  4.652525E-01
  4.631956E-01
  4.695813E-01
  4.783674E-01
  4.884795E-01
  4.906236E-01
  4.869615E-01
  4.756397E-01
  4.650949E-01
  4.552714E-01
  4.526863E-01
  4.544103E-01
  4.636603E-01
  4.747911E-01
  4.816151E-01
  4.859190E-01
  4.789287E-01
  4.702589E-01
  4.589450E-01
  4.561333E-01
  4.564589E-01
  4.645457E-01
  4.702595E-01
  4.768241E-01
  4.757830E-01
  4.742813E-01
  4.679304E-01
  4.662405E-01
  4.644566E-01
  4.689767E-01
  4.710396E-01
  4.747697E-01
  4.724648E-01
  4.718373E-01
  4.681488E-01
  4.690990E-01
  4.675110E-01
  4.686980E-01
  4.653503E-01
  4.647721E-01
  4.618178E-01
  4.640518E-01
  4.644309E-01
  4.679568E-01
  4.664146E-01
  4.660964E-01
  4.616022E-01
  4.615258E-01
  4.605996E-01
  4.650734E-01
  4.663684E-01
  4.688241E-01
  4.648860E-01
  4.624084E-01
  4.572099E-01
  4.577835E-01
  4.578796E-01
  4.631598E-01
  4.658410E-01
  4.716202E-01
  4.727931E-01
  4.747159E-01
  4.701551E-01
  4.672124E-01
  4.625174E-01
  4.656655E-01
  4.704216E-01
  4.803231E-01
  4.838326E-01
  4.843755E-01
  4.759098E-01
  4.687513E-01
  4.597662E-01
  4.571313E-01
  4.544966E-01
  4.587181E-01
  4.593497E-01
  4.733628E-01
  4.774790E-01
  4.828590E-01
  4.730068E-01
  4.671459E-01
  4.550805E-01
  4.557646E-01
  4.543488E-01
  4.640844E-01
  4.665327E-01
  4.744395E-01
  4.710966E-01
  4.728123E-01
  4.660413E-01
  4.682662E-01
  4.649727E-01
  4.712246E-01
  4.702429E-01
  4.760909E-01
  4.723752E-01
  4.747467E-01
  4.682918E-01
  4.692454E-01
  4.626541E-01
  4.643449E-01
  4.591593E-01
  4.626263E-01
  4.592115E-01
  4.639065E-01
  4.608374E-01
  4.651498E-01
  4.614637E-01
  4.656109E-01
  4.625012E-01
  4.675819E-01
  4.650262E-01
  4.697329E-01
  4.657206E-01
  4.681978E-01
  4.619514E-01
  4.634675E-01
  4.586566E-01
  4.637491E-01
  4.630754E-01
  4.707656E-01
  4.698313E-01
  4.749413E-01
  4.704400E-01
  4.721088E-01
  4.648331E-01
  4.649781E-01
  4.585942E-01
  4.626130E-01
  4.622448E-01
  4.717385E-01
  4.729428E-01
  4.786554E-01
  4.721040E-01
  4.697733E-01
  4.583835E-01
  4.559397E-01
  4.494049E-01
  4.556408E-01
  4.646752E-01
  4.737232E-01
  4.735556E-01
  4.786598E-01
  4.691941E-01
  4.650122E-01
  4.524304E-01
  4.529378E-01
  4.502203E-01
  4.606488E-01
  4.635140E-01
  4.733422E-01
  4.701752E-01
  4.722631E-01
  4.639910E-01
  4.662863E-01
  4.632328E-01
  4.722909E-01
  4.730335E-01
  4.803682E-01
  4.747773E-01
  4.752644E-01
  4.661777E-01
  4.673062E-01
  4.610526E-01
  4.643976E-01
  4.588293E-01
  4.625190E-01
  4.588853E-01
  4.664879E-01
  4.666505E-01
  4.748299E-01
  4.707065E-01
  4.718895E-01
  4.626477E-01
  4.641653E-01
  4.605989E-01
  4.689967E-01
  4.685021E-01
  4.741262E-01
  4.674296E-01
  4.686807E-01
  4.631854E-01
  4.702159E-01
  4.704635E-01
  4.786905E-01
  4.745458E-01
  4.760892E-01
  4.670777E-01
  4.671780E-01
  4.592531E-01
  4.614633E-01
  4.565884E-01
  4.629046E-01
  4.621423E-01
  4.702759E-01
  4.673459E-01
  4.706413E-01
  4.635524E-01
  4.659595E-01
  4.608419E-01
  4.654606E-01
  4.612764E-01
  4.665349E-01
  4.633071E-01
  4.705771E-01
  4.703737E-01
  4.741363E-01
  4.672264E-01
  4.651736E-01
  4.570009E-01
  4.585981E-01
  4.567370E-01
  4.639349E-01
  4.644464E-01
  4.701694E-01
  4.665430E-01
  4.683027E-01
  4.635153E-01
  4.676372E-01
  4.672971E-01
  4.752497E-01
  4.757127E-01
  4.807353E-01
  4.755424E-01
  4.745943E-01
  4.654062E-01
  4.634416E-01
  4.562033E-01
  4.580875E-01
  4.553919E-01
  4.612975E-01
  4.613253E-01
  4.683979E-01
  4.679391E-01
  4.731290E-01
  4.699219E-01
  4.727742E-01
  4.688695E-01
  4.727593E-01
  4.703773E-01
  4.745313E-01
  4.703160E-01
  4.713947E-01
  4.649795E-01
  4.667858E-01
  4.644995E-01
  4.718353E-01
  4.731163E-01
  4.795071E-01
  4.753681E-01
  4.750768E-01
  4.667470E-01
  4.661572E-01
  4.601952E-01
  4.622634E-01
  4.581037E-01
  4.613558E-01
  4.585004E-01
  4.633142E-01
  4.617039E-01
  4.669325E-01
  4.647271E-01
  4.685391E-01
  4.643729E-01
  4.662515E-01
  4.612777E-01
  4.645895E-01
  4.671841E-01
  4.679967E-01
  4.678459E-01
  4.708494E-01
  4.691002E-01
  4.678948E-01
  4.628394E-01
  4.619560E-01
  4.609318E-01
  4.653351E-01
  4.676539E-01
  4.714538E-01
  4.695721E-01
  4.683889E-01
  4.642978E-01
  4.656583E-01
  4.678899E-01
  4.755998E-01
  4.797317E-01
  4.828256E-01
  4.778396E-01
  4.724046E-01
  4.639492E-01
  4.609147E-01
  4.581961E-01
  4.605718E-01
  4.608752E-01
  4.642721E-01
  4.654580E-01
  4.708617E-01
  4.741694E-01
  4.792768E-01
  4.782889E-01
  4.768281E-01
  4.711619E-01
  4.701088E-01
  4.693372E-01
  4.734854E-01
  4.738734E-01
  4.742814E-01
  4.694114E-01
  4.678314E-01
  4.663638E-01
  4.711207E-01
  4.739271E-01
  4.774140E-01
  4.742502E-01
  4.715490E-01
  4.659741E-01
  4.649570E-01
  4.626640E-01
  4.641398E-01
  4.632369E-01
  4.657615E-01
  4.655277E-01
  4.673042E-01
  4.645950E-01
  4.639729E-01
  4.616064E-01
  4.647456E-01
  4.670038E-01
  4.718131E-01
  4.711848E-01
  4.709026E-01
  4.615456E-01
  4.624660E-01
  4.653508E-01
  4.683587E-01
  4.708223E-01
  4.715297E-01
  4.714743E-01
  4.709479E-01
  4.713258E-01
  4.719563E-01
  4.726530E-01
  4.717814E-01
  4.697322E-01
  4.669356E-01
  4.658346E-01
  4.671459E-01
  4.713868E-01
  4.762779E-01
  4.800268E-01
  4.800737E-01
  4.766409E-01
  4.703942E-01
  4.641615E-01
  4.594274E-01
  4.581066E-01
  4.596506E-01
  4.635515E-01
  4.674164E-01
  4.704414E-01
  4.715571E-01
  4.718608E-01
  4.715327E-01
  4.718954E-01
  4.727964E-01
  4.749141E-01
  4.769585E-01
  4.782371E-01
  4.768915E-01
  4.733761E-01
  4.683137E-01
  4.643990E-01
  4.627050E-01
  4.641921E-01
  4.670621E-01
  4.699862E-01
  4.708377E-01
  4.701542E-01
  4.685487E-01
  4.680230E-01
  4.683229E-01
  4.693180E-01
  4.693779E-01
  4.688301E-01
  4.675514E-01
  4.668518E-01
  4.663802E-01
  4.666442E-01
  4.668527E-01
  4.675500E-01
  4.678884E-01
  4.679844E-01
  4.666889E-01
  4.646950E-01
  4.623317E-01
  4.618851E-01
  4.600029E-01
  4.630462E-01
  4.672596E-01
  4.726385E-01
  4.743558E-01
  4.747114E-01
  4.725649E-01
  4.724715E-01
  4.726359E-01
  4.748353E-01
  4.746280E-01
  4.733800E-01
  4.689459E-01
  4.661063E-01
  4.647334E-01
  4.685347E-01
  4.735476E-01
  4.790812E-01
  4.792541E-01
  4.758233E-01
  4.683143E-01
  4.630389E-01
  4.602274E-01
  4.630110E-01
  4.670417E-01
  4.721939E-01
  4.738557E-01
  4.745557E-01
  4.730710E-01
  4.733750E-01
  4.729289E-01
  4.735001E-01
  4.719467E-01
  4.714881E-01
  4.705803E-01
  4.721061E-01
  4.723275E-01
  4.722978E-01
  4.688933E-01
  4.659655E-01
  4.629460E-01
  4.636703E-01
  4.649495E-01
  4.675764E-01
  4.675324E-01
  4.676922E-01
  4.669030E-01
  4.687921E-01
  4.701917E-01
  4.722559E-01
  4.716359E-01
  4.717702E-01
  4.713734E-01
  4.732751E-01
  4.735071E-01
  4.732113E-01
  4.698869E-01
  4.680183E-01
  4.668015E-01
  4.687778E-01
  4.693150E-01
  4.689402E-01
  4.648894E-01
  4.559319E-01
  4.574310E-01
  4.612338E-01
  4.666072E-01
  4.715646E-01
  4.750089E-01
  4.760367E-01
  4.756850E-01
  4.748052E-01
  4.745144E-01
  4.741329E-01
  4.730701E-01
  4.704365E-01
  4.673359E-01
  4.650583E-01
  4.653639E-01
  4.679908E-01
  4.719809E-01
  4.748801E-01
  4.753084E-01
  4.724503E-01
  4.678189E-01
  4.631890E-01
  4.611090E-01
  4.624836E-01
  4.673088E-01
  4.730554E-01
  4.771070E-01
  4.770505E-01
  4.734739E-01
  4.682032E-01
  4.643372E-01
  4.633114E-01
  4.657117E-01
  4.698515E-01
  4.737781E-01
  4.748653E-01
  4.725774E-01
  4.676048E-01
  4.626938E-01
  4.596648E-01
  4.596231E-01
  4.613011E-01
  4.634172E-01
  4.644845E-01
  4.650289E-01
  4.657781E-01
  4.679988E-01
  4.710198E-01
  4.737313E-01
  4.742274E-01
  4.726345E-01
  4.699323E-01
  4.684340E-01
  4.689096E-01
  4.713846E-01
  4.740823E-01
  4.759026E-01
  4.756675E-01
  4.736966E-01
  4.699882E-01
  4.655233E-01
  4.608106E-01
  4.573688E-01
  4.589680E-01
  4.591946E-01
  4.606626E-01
  4.667587E-01
  4.704281E-01
  4.738742E-01
  4.719956E-01
  4.708100E-01
  4.679960E-01
  4.693457E-01
  4.697604E-01
  4.719255E-01
  4.697023E-01
  4.676433E-01
  4.629964E-01
  4.626668E-01
  4.635060E-01
  4.692729E-01
  4.728010E-01
  4.756937E-01
  4.721916E-01
  4.683043E-01
  4.626531E-01
  4.625977E-01
  4.645016E-01
  4.713649E-01
  4.756794E-01
  4.792962E-01
  4.768942E-01
  4.744572E-01
  4.696164E-01
  4.682179E-01
  4.657089E-01
  4.660493E-01
  4.645043E-01
  4.657606E-01
  4.652515E-01
  4.668984E-01
  4.654280E-01
  4.652462E-01
  4.625997E-01
  4.630702E-01
  4.626011E-01
  4.651596E-01
  4.652784E-01
  4.671330E-01
  4.667889E-01
  4.694829E-01
  4.703745E-01
  4.725712E-01
  4.703067E-01
  4.686341E-01
  4.652424E-01
  4.668341E-01
  4.691572E-01
  4.747697E-01
  4.765143E-01
  4.777526E-01
  4.748104E-01
  4.739302E-01
  4.712674E-01
  4.706541E-01
  4.665379E-01
  4.635981E-01
  4.571692E-01
  4.603469E-01
  4.615241E-01
  4.667448E-01
  4.682202E-01
  4.717720E-01
  4.700829E-01
  4.704877E-01
  4.672447E-01
  4.680316E-01
  4.659848E-01
  4.672122E-01
  4.643484E-01
  4.645461E-01
  4.620138E-01
  4.644415E-01
  4.651184E-01
  4.701191E-01
  4.714162E-01
  4.746131E-01
  4.720121E-01
  4.705443E-01
  4.645597E-01
  4.629291E-01
  4.608035E-01
  4.656111E-01
  4.691311E-01
  4.752384E-01
  4.743909E-01
  4.728917E-01
  4.657748E-01
  4.628766E-01
  4.595955E-01
  4.630577E-01
  4.649684E-01
  4.697451E-01
  4.686657E-01
  4.682934E-01
  4.631904E-01
  4.621874E-01
  4.597743E-01
  4.626700E-01
  4.629686E-01
  4.663089E-01
  4.655020E-01
  4.678738E-01
  4.672827E-01
  4.705838E-01
  4.700575E-01
  4.713716E-01
  4.672449E-01
  4.654129E-01
  4.608748E-01
  4.621174E-01
  4.629733E-01
  4.694924E-01
  4.730768E-01
  4.785646E-01
  4.776648E-01
  4.769762E-01
  4.705015E-01
  4.666969E-01
  4.603503E-01
  4.593367E-01
  4.644391E-01
  4.648017E-01
  4.639589E-01
  4.671755E-01
  4.678341E-01
  4.698585E-01
  4.672862E-01
  4.663275E-01
  4.630928E-01
  4.639890E-01
  4.634540E-01
  4.657580E-01
  4.644629E-01
  4.648452E-01
  4.624870E-01
  4.641464E-01
  4.652871E-01
  4.708910E-01
  4.739238E-01
  4.776954E-01
  4.753975E-01
  4.727352E-01
  4.661678E-01
  4.635539E-01
  4.611618E-01
  4.643556E-01
  4.662694E-01
  4.702907E-01
  4.698047E-01
  4.704339E-01
  4.678498E-01
  4.682587E-01
  4.662074E-01
  4.665932E-01
  4.639348E-01
  4.641915E-01
  4.626999E-01
  4.649689E-01
  4.649659E-01
  4.672346E-01
  4.661042E-01
  4.674151E-01
  4.664258E-01
  4.686788E-01
  4.683254E-01
  4.701980E-01
  4.687061E-01
  4.693739E-01
  4.668105E-01
  4.662442E-01
  4.624395E-01
  4.617456E-01
  4.601984E-01
  4.639217E-01
  4.667940E-01
  4.721652E-01
  4.726707E-01
  4.732307E-01
  4.696110E-01
  4.689840E-01
  4.668875E-01
  4.683574E-01
  4.669337E-01
  4.673120E-01
  4.663300E-01
  4.681378E-01
  4.673655E-01
  4.674489E-01
  4.668995E-01
  4.682411E-01
  4.683404E-01
  4.689476E-01
  4.674335E-01
  4.665205E-01
  4.641760E-01
  4.632642E-01
  4.618766E-01
  4.630233E-01
  4.644860E-01
  4.682215E-01
  4.708519E-01
  4.741207E-01
  4.754434E-01
  4.772531E-01
  4.765076E-01
  4.747042E-01
  4.690855E-01
  4.634107E-01
  4.577666E-01
  4.567482E-01
  4.581946E-01
  4.626243E-01
  4.648307E-01
  4.656518E-01
  4.633040E-01
  4.624061E-01
  4.623418E-01
  4.656625E-01
  4.683901E-01
  4.709843E-01
  4.699853E-01
  4.684110E-01
  4.653672E-01
  4.646693E-01
  4.643011E-01
  4.662294E-01
  4.671978E-01
  4.690288E-01
  4.690155E-01
  4.695569E-01
  4.681804E-01
  4.673561E-01
  4.648592E-01
  4.636544E-01
  4.619594E-01
  4.626454E-01
  4.631844E-01
  4.654515E-01
  4.663754E-01
  4.680229E-01
  4.677982E-01
  4.679742E-01
  4.658821E-01
  4.641389E-01
  4.612073E-01
  4.608259E-01
  4.612797E-01
  4.644344E-01
  4.762130E-01
  4.743454E-01
  4.710383E-01
  4.682007E-01
  4.669804E-01
  4.668724E-01
  4.671416E-01
  4.669974E-01
  4.665352E-01
  4.657961E-01
  4.651210E-01
  4.644612E-01
  4.642259E-01
  4.646250E-01
  4.661049E-01
  4.684381E-01
  4.713962E-01
  4.742747E-01
  4.767069E-01
  4.779273E-01
  4.774068E-01
  4.745053E-01
  4.697132E-01
  4.641916E-01
  4.598531E-01
  4.576791E-01
  4.578110E-01
  4.591463E-01
  4.608704E-01
  4.625219E-01
  4.645821E-01
  4.670194E-01
  4.693521E-01
  4.703060E-01
  4.695145E-01
  4.675287E-01
  4.660271E-01
  4.658781E-01
  4.670056E-01
  4.681427E-01
  4.686794E-01
  4.686941E-01
  4.691599E-01
  4.701820E-01
  4.711330E-01
  4.705923E-01
  4.681868E-01
  4.644950E-01
  4.612369E-01
  4.596608E-01
  4.605989E-01
  4.636790E-01
  4.680546E-01
  4.718959E-01
  4.735530E-01
  4.717071E-01
  4.668097E-01
  4.605109E-01
  4.555655E-01
  4.539742E-01
  4.566894E-01
  4.626075E-01
  4.695567E-01
  4.746231E-01
  4.781189E-01
  4.774710E-01
  4.736490E-01
  4.682855E-01
  4.655380E-01
  4.651260E-01
  4.673926E-01
  4.691528E-01
  4.701384E-01
  4.685000E-01
  4.661146E-01
  4.630443E-01
  4.621602E-01
  4.631408E-01
  4.669460E-01
  4.705956E-01
  4.734496E-01
  4.735062E-01
  4.731199E-01
  4.725378E-01
  4.733601E-01
  4.728152E-01
  4.704156E-01
  4.647288E-01
  4.591523E-01
  4.551420E-01
  4.552725E-01
  4.572141E-01
  4.599534E-01
  4.606660E-01
  4.611461E-01
  4.619246E-01
  4.655274E-01
  4.699389E-01
  4.742121E-01
  4.749372E-01
  4.730329E-01
  4.686488E-01
  4.652303E-01
  4.629582E-01
  4.634466E-01
  4.648527E-01
  4.675862E-01
  4.693708E-01
  4.705585E-01
  4.691542E-01
  4.665097E-01
  4.623605E-01
  4.597508E-01
  4.590141E-01
  4.620298E-01
  4.665094E-01
  4.714475E-01
  4.731418E-01
  4.718990E-01
  4.673247E-01
  4.626885E-01
  4.582533E-01
  4.558936E-01
  4.545073E-01
  4.559526E-01
  4.596753E-01
  4.666606E-01
  4.734284E-01
  4.841160E-01
  4.797169E-01
  4.744520E-01
  4.678049E-01
  4.651072E-01
  4.631294E-01
  4.643812E-01
  4.643190E-01
  4.656126E-01
  4.645649E-01
  4.647708E-01
  4.632850E-01
  4.641380E-01
  4.642567E-01
  4.668044E-01
  4.675398E-01
  4.691341E-01
  4.680803E-01
  4.685326E-01
  4.678478E-01
  4.695004E-01
  4.691924E-01
  4.693415E-01
  4.663243E-01
  4.644961E-01
  4.616281E-01
  4.616764E-01
  4.609281E-01
  4.623714E-01
  4.627272E-01
  4.659924E-01
  4.687888E-01
  4.733778E-01
  4.744182E-01
  4.742174E-01
  4.700090E-01
  4.672956E-01
  4.643367E-01
  4.647743E-01
  4.642876E-01
  4.656150E-01
  4.655823E-01
  4.681688E-01
  4.695918E-01
  4.717165E-01
  4.694264E-01
  4.660322E-01
  4.599196E-01
  4.571637E-01
  4.562181E-01
  4.606579E-01
  4.656487E-01
  4.722516E-01
  4.746937E-01
  4.751008E-01
  4.701834E-01
  4.649211E-01
  4.581291E-01
  4.554315E-01
  4.549281E-01
  4.603913E-01
  4.673454E-01
  4.767321E-01
  4.819408E-01
  4.785145E-01
  4.755504E-01
  4.732452E-01
  4.661042E-01
  4.642901E-01
  4.612434E-01
  4.640078E-01
  4.634341E-01
  4.658421E-01
  4.631096E-01
  4.634009E-01
  4.602157E-01
  4.623398E-01
  4.624932E-01
  4.673638E-01
  4.673174E-01
  4.684662E-01
  4.634436E-01
  4.622040E-01
  4.596250E-01
  4.639891E-01
  4.658247E-01
  4.699484E-01
  4.672524E-01
  4.665790E-01
  4.626973E-01
  4.647268E-01
  4.643548E-01
  4.674591E-01
  4.654076E-01
  4.667657E-01
  4.656586E-01
  4.705529E-01
  4.725432E-01
  4.769412E-01
  4.742416E-01
  4.722851E-01
  4.651439E-01
  4.626768E-01
  4.586940E-01
  4.611874E-01
  4.619826E-01
  4.675481E-01
  4.686377E-01
  4.714108E-01
  4.674171E-01
  4.650211E-01
  4.584439E-01
  4.575449E-01
  4.561355E-01
  4.616813E-01
  4.648329E-01
  4.707267E-01
  4.699063E-01
  4.702385E-01
  4.658677E-01
  4.664306E-01
  4.647617E-01
  4.675408E-01
  4.660006E-01
  4.680085E-01
  4.672116E-01
  4.721517E-01
  4.741554E-01
  4.765581E-01
  4.710011E-01
  4.712451E-01
  4.649631E-01
  4.658394E-01
  4.607435E-01
  4.625823E-01
  4.581848E-01
  4.607933E-01
  4.575584E-01
  4.617041E-01
  4.601134E-01
  4.655747E-01
  4.643316E-01
  4.685910E-01
  4.644389E-01
  4.651136E-01
  4.586185E-01
  4.597735E-01
  4.567638E-01
  4.626524E-01
  4.631627E-01
  4.697816E-01
  4.684198E-01
  4.724696E-01
  4.694582E-01
  4.728982E-01
  4.694184E-01
  4.722111E-01
  4.688050E-01
  4.732987E-01
  4.724354E-01
  4.778516E-01
  4.742917E-01
  4.742609E-01
  4.659394E-01
  4.650155E-01
  4.599432E-01
  4.636103E-01
  4.616966E-01
  4.665178E-01
  4.651690E-01
  4.710823E-01
  4.703182E-01
  4.742848E-01
  4.684296E-01
  4.665599E-01
  4.578670E-01
  4.579666E-01
  4.549437E-01
  4.612072E-01
  4.620607E-01
  4.690162E-01
  4.681437E-01
  4.727267E-01
  4.701328E-01
  4.739947E-01
  4.712161E-01
  4.748838E-01
  4.717627E-01
  4.753621E-01
  4.727524E-01
  4.769722E-01
  4.740914E-01
  4.667240E-01
  4.652049E-01
  4.697091E-01
  4.652106E-01
  4.673171E-01
  4.622802E-01
  4.650949E-01
  4.607887E-01
  4.636699E-01
  4.591107E-01
  4.622502E-01
  4.591229E-01
  4.647266E-01
  4.639442E-01
  4.700596E-01
  4.665985E-01
  4.675259E-01
  4.592904E-01
  4.592558E-01
  4.552032E-01
  4.620739E-01
  4.632770E-01
  4.706926E-01
  4.682075E-01
  4.714811E-01
  4.676971E-01
  4.725138E-01
  4.703013E-01
  4.742879E-01
  4.692537E-01
  4.711511E-01
  4.668803E-01
  4.716649E-01
  4.696365E-01
  4.738468E-01
  4.685748E-01
  4.690014E-01
  4.617802E-01
  4.630748E-01
  4.592015E-01
  4.650056E-01
  4.652243E-01
  4.731680E-01
  4.722675E-01
  4.758819E-01
  4.690838E-01
  4.680781E-01
  4.602544E-01
  4.619211E-01