# vtk DataFile Version 2.0
title
ASCII
DATASET STRUCTURED_GRID
DIMENSIONS   64   64    1
POINTS   4096  float
  0.000000E+00  0.000000E+00  0.000000E+00
  0.000000E+00  3.906250E-01  0.000000E+00
  0.000000E+00  7.812500E-01  0.000000E+00
  0.000000E+00  1.171875E+00  0.000000E+00
  0.000000E+00  1.562500E+00  0.000000E+00
  0.000000E+00  1.953125E+00  0.000000E+00
  0.000000E+00  2.343750E+00  0.000000E+00
  0.000000E+00  2.734375E+00  0.000000E+00
  0.000000E+00  3.125000E+00  0.000000E+00
  0.000000E+00  3.515625E+00  0.000000E+00
  0.000000E+00  3.906250E+00  0.000000E+00
  0.000000E+00  4.296875E+00  0.000000E+00
  0.000000E+00  4.687500E+00  0.000000E+00
  0.000000E+00  5.078125E+00  0.000000E+00
  0.000000E+00  5.468750E+00  0.000000E+00
  0.000000E+00  5.859375E+00  0.000000E+00
  0.000000E+00  6.250000E+00  0.000000E+00
  0.000000E+00  6.640625E+00  0.000000E+00
  0.000000E+00  7.031250E+00  0.000000E+00
  0.000000E+00  7.421875E+00  0.000000E+00
  0.000000E+00  7.812500E+00  0.000000E+00
  0.000000E+00  8.203125E+00  0.000000E+00
  0.000000E+00  8.593750E+00  0.000000E+00
  0.000000E+00  8.984375E+00  0.000000E+00
  0.000000E+00  9.375000E+00  0.000000E+00
  0.000000E+00  9.765625E+00  0.000000E+00
  0.000000E+00  1.015625E+01  0.000000E+00
  0.000000E+00  1.054688E+01  0.000000E+00
  0.000000E+00  1.093750E+01  0.000000E+00
  0.000000E+00  1.132812E+01  0.000000E+00
  0.000000E+00  1.171875E+01  0.000000E+00
  0.000000E+00  1.210938E+01  0.000000E+00
  0.000000E+00  1.250000E+01  0.000000E+00
  0.000000E+00  1.289062E+01  0.000000E+00
  0.000000E+00  1.328125E+01  0.000000E+00
  0.000000E+00  1.367188E+01  0.000000E+00
  0.000000E+00  1.406250E+01  0.000000E+00
  0.000000E+00  1.445312E+01  0.000000E+00
  0.000000E+00  1.484375E+01  0.000000E+00
  0.000000E+00  1.523438E+01  0.000000E+00
  0.000000E+00  1.562500E+01  0.000000E+00
  0.000000E+00  1.601562E+01  0.000000E+00
  0.000000E+00  1.640625E+01  0.000000E+00
  0.000000E+00  1.679688E+01  0.000000E+00
  0.000000E+00  1.718750E+01  0.000000E+00
  0.000000E+00  1.757812E+01  0.000000E+00
  0.000000E+00  1.796875E+01  0.000000E+00
  0.000000E+00  1.835938E+01  0.000000E+00
  0.000000E+00  1.875000E+01  0.000000E+00
  0.000000E+00  1.914062E+01  0.000000E+00
  0.000000E+00  1.953125E+01  0.000000E+00
  0.000000E+00  1.992188E+01  0.000000E+00
  0.000000E+00  2.031250E+01  0.000000E+00
  0.000000E+00  2.070312E+01  0.000000E+00
  0.000000E+00  2.109375E+01  0.000000E+00
  0.000000E+00  2.148438E+01  0.000000E+00
  0.000000E+00  2.187500E+01  0.000000E+00
  0.000000E+00  2.226562E+01  0.000000E+00
  0.000000E+00  2.265625E+01  0.000000E+00
  0.000000E+00  2.304688E+01  0.000000E+00
  0.000000E+00  2.343750E+01  0.000000E+00
  0.000000E+00  2.382812E+01  0.000000E+00
  0.000000E+00  2.421875E+01  0.000000E+00
  0.000000E+00  2.460938E+01  0.000000E+00
  3.906250E-01  0.000000E+00  0.000000E+00
  3.906250E-01  3.906250E-01  0.000000E+00
  3.906250E-01  7.812500E-01  0.000000E+00
  3.906250E-01  1.171875E+00  0.000000E+00
  3.906250E-01  1.562500E+00  0.000000E+00
  3.906250E-01  1.953125E+00  0.000000E+00
  3.906250E-01  2.343750E+00  0.000000E+00
  3.906250E-01  2.734375E+00  0.000000E+00
  3.906250E-01  3.125000E+00  0.000000E+00
  3.906250E-01  3.515625E+00  0.000000E+00
  3.906250E-01  3.906250E+00  0.000000E+00
  3.906250E-01  4.296875E+00  0.000000E+00
  3.906250E-01  4.687500E+00  0.000000E+00
  3.906250E-01  5.078125E+00  0.000000E+00
  3.906250E-01  5.468750E+00  0.000000E+00
  3.906250E-01  5.859375E+00  0.000000E+00
  3.906250E-01  6.250000E+00  0.000000E+00
  3.906250E-01  6.640625E+00  0.000000E+00
  3.906250E-01  7.031250E+00  0.000000E+00
  3.906250E-01  7.421875E+00  0.000000E+00
  3.906250E-01  7.812500E+00  0.000000E+00
  3.906250E-01  8.203125E+00  0.000000E+00
  3.906250E-01  8.593750E+00  0.000000E+00
  3.906250E-01  8.984375E+00  0.000000E+00
  3.906250E-01  9.375000E+00  0.000000E+00
  3.906250E-01  9.765625E+00  0.000000E+00
  3.906250E-01  1.015625E+01  0.000000E+00
  3.906250E-01  1.054688E+01  0.000000E+00
  3.906250E-01  1.093750E+01  0.000000E+00
  3.906250E-01  1.132812E+01  0.000000E+00
  3.906250E-01  1.171875E+01  0.000000E+00
  3.906250E-01  1.210938E+01  0.000000E+00
  3.906250E-01  1.250000E+01  0.000000E+00
  3.906250E-01  1.289062E+01  0.000000E+00
  3.906250E-01  1.328125E+01  0.000000E+00
  3.906250E-01  1.367188E+01  0.000000E+00
  3.906250E-01  1.406250E+01  0.000000E+00
  3.906250E-01  1.445312E+01  0.000000E+00
  3.906250E-01  1.484375E+01  0.000000E+00
  3.906250E-01  1.523438E+01  0.000000E+00
  3.906250E-01  1.562500E+01  0.000000E+00
  3.906250E-01  1.601562E+01  0.000000E+00
  3.906250E-01  1.640625E+01  0.000000E+00
  3.906250E-01  1.679688E+01  0.000000E+00
  3.906250E-01  1.718750E+01  0.000000E+00
  3.906250E-01  1.757812E+01  0.000000E+00
  3.906250E-01  1.796875E+01  0.000000E+00
  3.906250E-01  1.835938E+01  0.000000E+00
  3.906250E-01  1.875000E+01  0.000000E+00
  3.906250E-01  1.914062E+01  0.000000E+00
  3.906250E-01  1.953125E+01  0.000000E+00
  3.906250E-01  1.992188E+01  0.000000E+00
  3.906250E-01  2.031250E+01  0.000000E+00
  3.906250E-01  2.070312E+01  0.000000E+00
  3.906250E-01  2.109375E+01  0.000000E+00
  3.906250E-01  2.148438E+01  0.000000E+00
  3.906250E-01  2.187500E+01  0.000000E+00
  3.906250E-01  2.226562E+01  0.000000E+00
  3.906250E-01  2.265625E+01  0.000000E+00
  3.906250E-01  2.304688E+01  0.000000E+00
  3.906250E-01  2.343750E+01  0.000000E+00
  3.906250E-01  2.382812E+01  0.000000E+00
  3.906250E-01  2.421875E+01  0.000000E+00
  3.906250E-01  2.460938E+01  0.000000E+00
  7.812500E-01  0.000000E+00  0.000000E+00
  7.812500E-01  3.906250E-01  0.000000E+00
  7.812500E-01  7.812500E-01  0.000000E+00
  7.812500E-01  1.171875E+00  0.000000E+00
  7.812500E-01  1.562500E+00  0.000000E+00
  7.812500E-01  1.953125E+00  0.000000E+00
  7.812500E-01  2.343750E+00  0.000000E+00
  7.812500E-01  2.734375E+00  0.000000E+00
  7.812500E-01  3.125000E+00  0.000000E+00
  7.812500E-01  3.515625E+00  0.000000E+00
  7.812500E-01  3.906250E+00  0.000000E+00
  7.812500E-01  4.296875E+00  0.000000E+00
  7.812500E-01  4.687500E+00  0.000000E+00
  7.812500E-01  5.078125E+00  0.000000E+00
  7.812500E-01  5.468750E+00  0.000000E+00
  7.812500E-01  5.859375E+00  0.000000E+00
  7.812500E-01  6.250000E+00  0.000000E+00
  7.812500E-01  6.640625E+00  0.000000E+00
  7.812500E-01  7.031250E+00  0.000000E+00
  7.812500E-01  7.421875E+00  0.000000E+00
  7.812500E-01  7.812500E+00  0.000000E+00
  7.812500E-01  8.203125E+00  0.000000E+00
  7.812500E-01  8.593750E+00  0.000000E+00
  7.812500E-01  8.984375E+00  0.000000E+00
  7.812500E-01  9.375000E+00  0.000000E+00
  7.812500E-01  9.765625E+00  0.000000E+00
  7.812500E-01  1.015625E+01  0.000000E+00
  7.812500E-01  1.054688E+01  0.000000E+00
  7.812500E-01  1.093750E+01  0.000000E+00
  7.812500E-01  1.132812E+01  0.000000E+00
  7.812500E-01  1.171875E+01  0.000000E+00
  7.812500E-01  1.210938E+01  0.000000E+00
  7.812500E-01  1.250000E+01  0.000000E+00
  7.812500E-01  1.289062E+01  0.000000E+00
  7.812500E-01  1.328125E+01  0.000000E+00
  7.812500E-01  1.367188E+01  0.000000E+00
  7.812500E-01  1.406250E+01  0.000000E+00
  7.812500E-01  1.445312E+01  0.000000E+00
  7.812500E-01  1.484375E+01  0.000000E+00
  7.812500E-01  1.523438E+01  0.000000E+00
  7.812500E-01  1.562500E+01  0.000000E+00
  7.812500E-01  1.601562E+01  0.000000E+00
  7.812500E-01  1.640625E+01  0.000000E+00
  7.812500E-01  1.679688E+01  0.000000E+00
  7.812500E-01  1.718750E+01  0.000000E+00
  7.812500E-01  1.757812E+01  0.000000E+00
  7.812500E-01  1.796875E+01  0.000000E+00
  7.812500E-01  1.835938E+01  0.000000E+00
  7.812500E-01  1.875000E+01  0.000000E+00
  7.812500E-01  1.914062E+01  0.000000E+00
  7.812500E-01  1.953125E+01  0.000000E+00
  7.812500E-01  1.992188E+01  0.000000E+00
  7.812500E-01  2.031250E+01  0.000000E+00
  7.812500E-01  2.070312E+01  0.000000E+00
  7.812500E-01  2.109375E+01  0.000000E+00
  7.812500E-01  2.148438E+01  0.000000E+00
  7.812500E-01  2.187500E+01  0.000000E+00
  7.812500E-01  2.226562E+01  0.000000E+00
  7.812500E-01  2.265625E+01  0.000000E+00
  7.812500E-01  2.304688E+01  0.000000E+00
  7.812500E-01  2.343750E+01  0.000000E+00
  7.812500E-01  2.382812E+01  0.000000E+00
  7.812500E-01  2.421875E+01  0.000000E+00
  7.812500E-01  2.460938E+01  0.000000E+00
  1.171875E+00  0.000000E+00  0.000000E+00
  1.171875E+00  3.906250E-01  0.000000E+00
  1.171875E+00  7.812500E-01  0.000000E+00
  1.171875E+00  1.171875E+00  0.000000E+00
  1.171875E+00  1.562500E+00  0.000000E+00
  1.171875E+00  1.953125E+00  0.000000E+00
  1.171875E+00  2.343750E+00  0.000000E+00
  1.171875E+00  2.734375E+00  0.000000E+00
  1.171875E+00  3.125000E+00  0.000000E+00
  1.171875E+00  3.515625E+00  0.000000E+00
  1.171875E+00  3.906250E+00  0.000000E+00
  1.171875E+00  4.296875E+00  0.000000E+00
  1.171875E+00  4.687500E+00  0.000000E+00
  1.171875E+00  5.078125E+00  0.000000E+00
  1.171875E+00  5.468750E+00  0.000000E+00
  1.171875E+00  5.859375E+00  0.000000E+00
  1.171875E+00  6.250000E+00  0.000000E+00
  1.171875E+00  6.640625E+00  0.000000E+00
  1.171875E+00  7.031250E+00  0.000000E+00
  1.171875E+00  7.421875E+00  0.000000E+00
  1.171875E+00  7.812500E+00  0.000000E+00
  1.171875E+00  8.203125E+00  0.000000E+00
  1.171875E+00  8.593750E+00  0.000000E+00
  1.171875E+00  8.984375E+00  0.000000E+00
  1.171875E+00  9.375000E+00  0.000000E+00
  1.171875E+00  9.765625E+00  0.000000E+00
  1.171875E+00  1.015625E+01  0.000000E+00
  1.171875E+00  1.054688E+01  0.000000E+00
  1.171875E+00  1.093750E+01  0.000000E+00
  1.171875E+00  1.132812E+01  0.000000E+00
  1.171875E+00  1.171875E+01  0.000000E+00
  1.171875E+00  1.210938E+01  0.000000E+00
  1.171875E+00  1.250000E+01  0.000000E+00
  1.171875E+00  1.289062E+01  0.000000E+00
  1.171875E+00  1.328125E+01  0.000000E+00
  1.171875E+00  1.367188E+01  0.000000E+00
  1.171875E+00  1.406250E+01  0.000000E+00
  1.171875E+00  1.445312E+01  0.000000E+00
[...]
POINT_DATA   4096
SCALARS CON  float  1
LOOKUP_TABLE default
  4.704194E-01
  4.689320E-01
  4.745270E-01
  4.735574E-01
  4.737428E-01
  4.668655E-01
  4.673921E-01
  4.669950E-01
  4.730645E-01
  4.715592E-01
  4.718512E-01
  4.664697E-01
  4.679613E-01
  4.658545E-01
  4.686094E-01
  4.661015E-01
  4.698572E-01
  4.698595E-01
  4.740723E-01
  4.705143E-01
  4.700875E-01
  4.647867E-01
  4.658172E-01
  4.627169E-01
  4.647122E-01
  4.613168E-01
  4.633185E-01
  4.623842E-01
  4.693138E-01
  4.715163E-01
  4.748856E-01
  4.683529E-01
  4.664410E-01
  4.638038E-01
  4.701208E-01
  4.706419E-01
  4.722732E-01
  4.660992E-01
  4.654403E-01
  4.619179E-01
  4.650308E-01
  4.630898E-01
  4.652616E-01
  4.620279E-01
  4.643505E-01
  4.620569E-01
  4.652425E-01
  4.652837E-01
  4.727738E-01
  4.742747E-01
  4.756907E-01
  4.674640E-01
  4.647718E-01
  4.611571E-01
  4.666647E-01
  4.697546E-01
  4.783954E-01
  4.791776E-01
  4.803028E-01
  4.736768E-01
  4.735245E-01
  4.708499E-01
  4.734165E-01
  4.693643E-01
  4.701160E-01
  4.698043E-01
  4.776925E-01
  4.796453E-01
  4.793196E-01
  4.693968E-01
  4.656040E-01
  4.635429E-01
  4.695470E-01
  4.695004E-01
  4.706554E-01
  4.672174E-01
  4.702026E-01
  4.689734E-01
  4.697490E-01
  4.648854E-01
  4.669417E-01
  4.684870E-01
  4.752029E-01
  4.740218E-01
  4.727887E-01
  4.654713E-01
  4.644366E-01
  4.622495E-01
  4.662226E-01
  4.651797E-01
  4.670550E-01
  4.646260E-01
  4.685539E-01
  4.694408E-01
  4.731264E-01
  4.691136E-01
  4.682261E-01
  4.648432E-01
  4.681512E-01
  4.669799E-01
  4.683877E-01
  4.645281E-01
  4.661398E-01
  4.646423E-01
  4.669684E-01
  4.628350E-01
  4.619754E-01
  4.580274E-01
  4.605859E-01
  4.596520E-01
  4.635126E-01
  4.652987E-01
  4.743965E-01
  4.777646E-01
  4.788387E-01
  4.694582E-01
  4.652685E-01
  4.628304E-01
  4.703534E-01
  4.750707E-01
  4.819782E-01
  4.799274E-01
  4.779679E-01
  4.705003E-01
  4.703487E-01
  4.692850E-01
  4.728250E-01
  4.695425E-01
  4.633248E-01
  4.689383E-01
  4.783256E-01
  4.813110E-01
  4.788970E-01
  4.701579E-01
  4.660623E-01
  4.651108E-01
  4.690847E-01
  4.699121E-01
  4.710289E-01
  4.696559E-01
  4.711608E-01
  4.703603E-01
  4.705540E-01
  4.681256E-01
  4.692909E-01
  4.702734E-01
  4.736687E-01
  4.729160E-01
  4.719503E-01
  4.677896E-01
  4.664394E-01
  4.644592E-01
  4.659129E-01
  4.652525E-01
  4.658531E-01
  4.639671E-01
  4.652435E-01
  4.652181E-01
  4.664097E-01
  4.636631E-01
  4.633253E-01
  4.636873E-01
  4.686570E-01
  4.704530E-01
  4.708727E-01
  4.667235E-01
  4.654012E-01
  4.639237E-01
  4.651996E-01
  4.627483E-01
  4.606197E-01
  4.565640E-01
  4.571447E-01
  4.583811E-01
  4.636285E-01
  4.682204E-01
  4.757839E-01
  4.787389E-01
  4.779361E-01
  4.702899E-01
  4.658560E-01
  4.643421E-01
  4.694941E-01
  4.742601E-01
  4.803425E-01
  4.806644E-01
  4.779386E-01
  4.695898E-01
  4.642214E-01
  4.599369E-01
  4.601709E-01
  4.594577E-01
  4.626172E-01
  4.697839E-01
  4.771647E-01
  4.818565E-01
  4.767259E-01
  4.685365E-01
  4.613124E-01
  4.618605E-01
  4.646041E-01
  4.686630E-01
  4.695906E-01
  4.720152E-01
  4.730618E-01
  4.741913E-01
  4.710093E-01
  4.686756E-01
  4.670847E-01
  4.702025E-01
  4.723416E-01
  4.739553E-01
  4.714255E-01
  4.698545E-01
  4.678746E-01
  4.691633E-01
  4.695265E-01
  4.707189E-01
  4.684624E-01
  4.663781E-01
  4.630944E-01
  4.637119E-01
  4.649347E-01
  4.679532E-01
  4.677889E-01
  4.679452E-01
  4.663709E-01
  4.665603E-01
  4.649260E-01
  4.653965E-01
  4.659981E-01
  4.692412E-01
  4.688424E-01
  4.663751E-01
  4.611449E-01
  4.604773E-01
  4.619050E-01
  4.656554E-01
  4.662323E-01
  4.682986E-01
  4.705990E-01
  4.745543E-01
  4.729330E-01
  4.688719E-01
  4.641342E-01
  4.663018E-01
  4.712982E-01
  4.781631E-01
  4.801962E-01
  4.794254E-01
  4.732217E-01
  4.673399E-01
  4.616912E-01
  4.607071E-01
  4.597826E-01
  4.609975E-01
  4.601955E-01
  4.705536E-01
  4.744563E-01
  4.782474E-01
  4.701304E-01
  4.658244E-01
  4.591768E-01
  4.622072E-01
  4.619471E-01
  4.677324E-01
  4.679636E-01
  4.731158E-01
  4.711174E-01
  4.728543E-01
  4.682094E-01
  4.697931E-01
  4.672833E-01
  4.711797E-01
  4.691505E-01
  4.718823E-01
  4.689877E-01
  4.719774E-01
  4.688943E-01
  4.701451E-01
  4.654607E-01
  4.671594E-01
  4.639052E-01
  4.655122E-01
  4.609761E-01
  4.631335E-01
  4.619895E-01
  4.670996E-01
  4.652761E-01
  4.677781E-01
  4.652252E-01
  4.688301E-01
  4.660079E-01
  4.676629E-01
  4.644875E-01
  4.681836E-01
  4.656599E-01
  4.663691E-01
  4.610132E-01
  4.640717E-01
  4.651579E-01
  4.719028E-01
  4.696391E-01
  4.701216E-01
  4.656543E-01
  4.685713E-01
  4.657808E-01
  4.669935E-01
  4.627876E-01
  4.663053E-01
  4.663019E-01
  4.723367E-01
  4.721990E-01
  4.759958E-01
  4.714713E-01
  4.699200E-01
  4.619817E-01
  4.604770E-01
  4.553169E-01
  4.585193E-01
  4.653844E-01
  4.719526E-01
  4.721662E-01
  4.755033E-01
  4.675798E-01
  4.642564E-01
  4.565288E-01
  4.589963E-01
  4.577694E-01
  4.642805E-01
  4.647189E-01
  4.712532E-01
  4.694933E-01
  4.716352E-01
  4.655646E-01
  4.668309E-01
  4.643934E-01
  4.707696E-01
  4.704618E-01
  4.746315E-01
  4.704792E-01
  4.723102E-01
  4.672691E-01
  4.680647E-01
  4.625306E-01
  4.652615E-01
  4.630665E-01
  4.666903E-01
  4.623337E-01
  4.656279E-01
  4.659739E-01
  4.739985E-01
  4.716052E-01
  4.707883E-01
  4.627089E-01
  4.642492E-01
  4.621193E-01
  4.674194E-01
  4.666155E-01
  4.719522E-01
  4.679398E-01
  4.671249E-01
  4.608348E-01
  4.669484E-01
  4.712725E-01
  4.797919E-01
  4.743169E-01
  4.705844E-01
  4.620788E-01
  4.646818E-01
  4.627207E-01
  4.659313E-01
  4.618199E-01
  4.657674E-01
  4.649336E-01
  4.701776E-01
  4.671412E-01
  4.696160E-01
  4.658765E-01
  4.693880E-01
  4.665795E-01
  4.696528E-01
  4.653471E-01
  4.676883E-01
  4.653233E-01
  4.700057E-01
  4.694765E-01
  4.709235E-01
  4.658339E-01
  4.653050E-01
  4.615035E-01
  4.629180E-01
  4.604758E-01
  4.640774E-01
  4.647784E-01
  4.693963E-01
  4.669609E-01
  4.672401E-01
  4.637942E-01
  4.671935E-01
  4.680217E-01
  4.735608E-01
  4.731235E-01
  4.752805E-01
  4.718919E-01
  4.725504E-01
  4.672054E-01
  4.642238E-01
  4.569218E-01
  4.578554E-01
  4.586237E-01
  4.646436E-01
  4.639987E-01
  4.669988E-01
  4.673713E-01
  4.729415E-01
  4.708359E-01
  4.697665E-01
  4.649985E-01
  4.683083E-01
  4.685981E-01
  4.717472E-01
  4.687837E-01
  4.700520E-01
  4.661136E-01
  4.654279E-01
  4.613341E-01
  4.662132E-01
  4.708706E-01
  4.790845E-01
  4.765703E-01
  4.729685E-01
  4.647054E-01
  4.648247E-01
  4.634634E-01
  4.664134E-01
  4.634572E-01
  4.645265E-01
  4.615005E-01
  4.633821E-01
  4.614295E-01
  4.651342E-01
  4.655052E-01
  4.704811E-01
  4.695063E-01
  4.707324E-01
  4.660831E-01
  4.667738E-01
  4.671102E-01
  4.671183E-01
  4.672322E-01
  4.697712E-01
  4.690636E-01
  4.687543E-01
  4.659757E-01
  4.654663E-01
  4.638736E-01
  4.655191E-01
  4.664090E-01
  4.691138E-01
  4.683066E-01
  4.678753E-01
  4.655833E-01
  4.671884E-01
  4.695344E-01
  4.752531E-01
  4.777239E-01
  4.786720E-01
  4.746101E-01
  4.716166E-01
  4.669327E-01
  4.640963E-01
  4.599132E-01
  4.604507E-01
  4.624403E-01
  4.668591E-01
  4.672399E-01
  4.691277E-01
  4.717754E-01
  4.775703E-01
  4.773544E-01
  4.735803E-01
  4.673858E-01
  4.675236E-01
  4.692373E-01
  4.726263E-01
  4.724195E-01
  4.730422E-01
  4.700983E-01
  4.672707E-01
  4.635664E-01
  4.664185E-01
  4.712498E-01
  4.767021E-01
  4.747631E-01
  4.708735E-01
  4.661007E-01
  4.668526E-01
  4.671929E-01
  4.678879E-01
  4.651863E-01
  4.654715E-01
  4.656799E-01
  4.675788E-01
  4.654506E-01
  4.642840E-01
  4.630452E-01
  4.667816E-01
  4.699136E-01
  4.735068E-01
  4.722485E-01
  4.707390E-01
  4.615709E-01
  4.630705E-01
  4.649383E-01
  4.682420E-01
  4.698128E-01
  4.719859E-01
  4.722736E-01
  4.723569E-01
  4.703176E-01
  4.702003E-01
  4.702934E-01
  4.712101E-01
  4.691923E-01
  4.678153E-01
  4.671100E-01
  4.699683E-01
  4.727690E-01
  4.762221E-01
  4.767277E-01
  4.760094E-01
  4.725690E-01
  4.703651E-01
  4.674189E-01
  4.651873E-01
  4.618398E-01
  4.619563E-01
  4.640885E-01
  4.680087E-01
  4.685340E-01
  4.687424E-01
  4.691919E-01
  4.723264E-01
  4.729084E-01
  4.723230E-01
  4.711350E-01
  4.736945E-01
  4.753678E-01
  4.751799E-01
  4.711345E-01
  4.685071E-01
  4.664642E-01
  4.665170E-01
  4.655519E-01
  4.662945E-01
  4.668727E-01
  4.687749E-01
  4.683503E-01
  4.680361E-01
  4.672104E-01
  4.690964E-01
  4.699384E-01
  4.701082E-01
  4.676106E-01
  4.670111E-01
  4.672421E-01
  4.693847E-01
  4.690177E-01
  4.680217E-01
  4.656823E-01
  4.658582E-01
  4.658765E-01
  4.664480E-01
  4.644725E-01
  4.631103E-01
  4.617516E-01
  4.617160E-01
  4.640531E-01
  4.688950E-01
  4.713227E-01
  4.725458E-01
  4.716309E-01
  4.716776E-01
  4.708486E-01
  4.713990E-01
  4.714031E-01
  4.723588E-01
  4.713121E-01
  4.702575E-01
  4.680509E-01
  4.679227E-01
  4.686259E-01
  4.720387E-01
  4.742324E-01
  4.747296E-01
  4.710407E-01
  4.678139E-01
  4.655756E-01
  4.664045E-01
  4.670565E-01
  4.693889E-01
  4.712151E-01
  4.728812E-01
  4.708655E-01
  4.690087E-01
  4.685810E-01
  4.717857E-01
  4.730374E-01
  4.722876E-01
  4.697316E-01
  4.703634E-01
  4.713751E-01
  4.719910E-01
  4.694752E-01
  4.676942E-01
  4.659730E-01
  4.664079E-01
  4.666632E-01
  4.682209E-01
  4.677298E-01
  4.664147E-01
  4.633880E-01
  4.633046E-01
  4.655582E-01
  4.705448E-01
  4.725182E-01
  4.716460E-01
  4.682364E-01
  4.686097E-01
  4.718977E-01
  4.765832E-01
  4.759900E-01
  4.716638E-01
  4.655147E-01
  4.636451E-01
  4.643868E-01
  4.670763E-01
  4.668348E-01
  4.651015E-01
  4.595053E-01
  4.611839E-01
  4.636679E-01
  4.671211E-01
  4.688740E-01
  4.708741E-01
  4.715797E-01
  4.721691E-01
  4.709975E-01
  4.711087E-01
  4.713871E-01
  4.721585E-01
  4.703044E-01
  4.683344E-01
  4.663703E-01
  4.667854E-01
  4.674169E-01
  4.695747E-01
  4.708479E-01
  4.715620E-01
  4.693356E-01
  4.670909E-01
  4.647580E-01
  4.646377E-01
  4.651281E-01
  4.682168E-01
  4.714424E-01
  4.739912E-01
  4.719992E-01
  4.682541E-01
  4.643816E-01
  4.640176E-01
  4.645666E-01
  4.664805E-01
  4.682565E-01
  4.716200E-01
  4.728471E-01
  4.714140E-01
  4.660916E-01
  4.618006E-01
  4.599092E-01
  4.626521E-01
  4.660111E-01
  4.684755E-01
  4.669527E-01
  4.646661E-01
  4.626570E-01
  4.643818E-01
  4.677612E-01
  4.721849E-01
  4.731529E-01
  4.715762E-01
  4.678938E-01
  4.671047E-01
  4.688929E-01
  4.731674E-01
  4.747788E-01
  4.737210E-01
  4.698076E-01
  4.674683E-01
  4.657837E-01
  4.651563E-01
  4.627593E-01
  4.609163E-01
  4.633137E-01
  4.631481E-01
  4.643554E-01
  4.677979E-01
  4.690532E-01
  4.697336E-01
  4.681718E-01
  4.677072E-01
  4.665920E-01
  4.676412E-01
  4.684842E-01
  4.705020E-01
  4.698800E-01
  4.685384E-01
  4.652433E-01
  4.642512E-01
  4.646377E-01
  4.688057E-01
  4.724467E-01
  4.748339E-01
  4.719953E-01
  4.680218E-01
  4.638099E-01
  4.636182E-01
  4.650615E-01
  4.696445E-01
  4.733910E-01
  4.760845E-01
  4.736618E-01
  4.700703E-01
  4.664681E-01
  4.667490E-01
  4.667369E-01
  4.667637E-01
  4.651126E-01
  4.660019E-01
  4.669421E-01
  4.682337E-01
  4.662329E-01
  4.641873E-01
  4.617091E-01
  4.627573E-01
  4.650764E-01
  4.690793E-01
  4.697411E-01
  4.687877E-01
  4.661285E-01
  4.670111E-01
  4.694518E-01
  4.730913E-01
  4.723286E-01
  4.692567E-01
  4.647080E-01
  4.646934E-01
  4.674769E-01
  4.724860E-01
  4.737260E-01
  4.728209E-01
  4.699109E-01
  4.699639E-01
  4.704565E-01
  4.715802E-01
  4.694099E-01
  4.668074E-01
  4.617085E-01
  4.645556E-01
  4.648789E-01
  4.675641E-01
  4.676254E-01
  4.701855E-01
  4.690057E-01
  4.687782E-01
  4.653982E-01
  4.662775E-01
  4.665568E-01
  4.693054E-01
  4.671681E-01
  4.661964E-01
  4.636517E-01
  4.660460E-01
  4.673207E-01
  4.714938E-01
  4.725114E-01
  4.748879E-01
  4.725176E-01
  4.707156E-01
  4.653055E-01
  4.632550E-01
  4.609279E-01
  4.643591E-01
  4.673327E-01
  4.724012E-01
  4.717059E-01
  4.705044E-01
  4.659671E-01
  4.656130E-01
  4.642476E-01
  4.661584E-01
  4.658774E-01
  4.687929E-01
  4.686825E-01
  4.693638E-01
  4.654038E-01
  4.637081E-01
  4.610684E-01
  4.634781E-01
  4.644990E-01
  4.675438E-01
  4.667682E-01
  4.684234E-01
  4.682286E-01
  4.712968E-01
  4.712114E-01
  4.720160E-01
  4.681087E-01
  4.659517E-01
  4.620559E-01
  4.626542E-01
  4.624360E-01
  4.661594E-01
  4.678547E-01
  4.719547E-01
  4.725322E-01
  4.743734E-01
  4.715490E-01
  4.693379E-01
  4.639822E-01
  4.629272E-01
  4.651060E-01
  4.667240E-01
  4.659533E-01
  4.689467E-01
  4.690176E-01
  4.707393E-01
  4.676585E-01
  4.665936E-01
  4.631735E-01
  4.643974E-01
  4.642830E-01
  4.674227E-01
  4.663327E-01
  4.666961E-01
  4.640450E-01
  4.658326E-01
  4.663279E-01
  4.706162E-01
  4.719005E-01
  4.751413E-01
  4.732742E-01
  4.720513E-01
  4.668695E-01
  4.654353E-01
  4.627591E-01
  4.648329E-01
  4.653939E-01
  4.692598E-01
  4.690559E-01
  4.704633E-01
  4.689388E-01
  4.712769E-01
  4.702249E-01
  4.700627E-01
  4.656368E-01
  4.652561E-01
  4.640010E-01
  4.667903E-01
  4.666091E-01
  4.689688E-01
  4.676047E-01
  4.682811E-01
  4.657986E-01
  4.671306E-01
  4.665359E-01
  4.691219E-01
  4.682281E-01
  4.697265E-01
  4.677594E-01
  4.678535E-01
  4.639149E-01
  4.629970E-01
  4.610073E-01
  4.643629E-01
  4.657601E-01
  4.692869E-01
  4.685370E-01
  4.703195E-01
  4.695299E-01
  4.717095E-01
  4.698411E-01
  4.696582E-01
  4.663277E-01
  4.668032E-01
  4.656426E-01
  4.675686E-01
  4.666769E-01
  4.667434E-01
  4.673465E-01
  4.696933E-01
  4.699796E-01
  4.690941E-01
  4.662294E-01
  4.652635E-01
  4.649379E-01
  4.657340E-01
  4.645593E-01
  4.643259E-01
  4.650721E-01
  4.683862E-01
  4.698542E-01
  4.700077E-01
  4.687122E-01
  4.701064E-01
  4.717921E-01
  4.729792E-01
  4.702423E-01
  4.665219E-01
  4.620445E-01
  4.602284E-01
  4.599831E-01
  4.628888E-01
  4.652475E-01
  4.669032E-01
  4.659806E-01
  4.660787E-01
  4.662105E-01
  4.676249E-01
  4.678287E-01
  4.686147E-01
  4.677930E-01
  4.671104E-01
  4.656752E-01
  4.666123E-01
  4.677364E-01
  4.690599E-01
  4.674145E-01
  4.656775E-01
  4.642370E-01
  4.657902E-01
  4.668776E-01
  4.673907E-01
  4.651545E-01
  4.632356E-01
  4.612439E-01
  4.622004E-01
  4.642586E-01
  4.676362E-01
  4.684446E-01
  4.684084E-01
  4.673589E-01
  4.683257E-01
  4.685138E-01
  4.680165E-01
  4.645322E-01
  4.617796E-01
  4.604351E-01
  4.630353E-01
  4.736035E-01
  4.704407E-01
  4.682266E-01
  4.659455E-01
  4.675785E-01
  4.675295E-01
  4.685315E-01
  4.669929E-01
  4.672320E-01
  4.654697E-01
  4.656753E-01
  4.642676E-01
  4.652126E-01
  4.649530E-01
  4.677366E-01
  4.691241E-01
  4.712110E-01
  4.695094E-01
  4.697701E-01
  4.700393E-01
  4.731247E-01
  4.724801E-01
  4.711854E-01
  4.669253E-01
  4.649066E-01
  4.616594E-01
  4.616794E-01
  4.617726E-01
  4.647222E-01
  4.648205E-01
  4.659207E-01
  4.658048E-01
  4.685047E-01
  4.684610E-01
  4.686045E-01
  4.660488E-01
  4.657953E-01
  4.644938E-01
  4.664725E-01
  4.677886E-01
  4.705652E-01
  4.691636E-01
  4.681602E-01
  4.662300E-01
  4.681102E-01
  4.679744E-01
  4.675363E-01
  4.634961E-01
  4.620763E-01
  4.607137E-01
  4.626986E-01
  4.637560E-01
  4.681143E-01
  4.713566E-01
  4.748675E-01
  4.727067E-01
  4.695646E-01
  4.643130E-01
  4.625020E-01
  4.602017E-01
  4.611164E-01
  4.622590E-01
  4.676237E-01
  4.711660E-01
  4.766306E-01
  4.733000E-01
  4.695325E-01
  4.646749E-01
  4.652608E-01
  4.656891E-01
  4.686963E-01
  4.684238E-01
  4.694630E-01
  4.675968E-01
  4.676319E-01
  4.646397E-01
  4.638520E-01
  4.627080E-01
  4.674271E-01
  4.715189E-01
  4.753527E-01
  4.723738E-01
  4.703053E-01
  4.685070E-01
  4.716618E-01
  4.715577E-01
  4.705310E-01
  4.650374E-01
  4.621138E-01
  4.585160E-01
  4.596590E-01
  4.608919E-01
  4.647244E-01
  4.636049E-01
  4.624149E-01
  4.601179E-01
  4.638421E-01
  4.674666E-01
  4.723812E-01
  4.719737E-01
  4.710364E-01
  4.664329E-01
  4.650066E-01
  4.634035E-01
  4.656132E-01
  4.653636E-01
  4.668646E-01
  4.664603E-01
  4.692395E-01
  4.689520E-01
  4.684338E-01
  4.637111E-01
  4.622862E-01
  4.613032E-01
  4.647756E-01
  4.667243E-01
  4.710706E-01
  4.720699E-01
  4.727490E-01
  4.682038E-01
  4.652856E-01
  4.614819E-01
  4.612955E-01
  4.588684E-01
  4.592981E-01
  4.601307E-01
  4.669024E-01
  4.723159E-01
  4.810966E-01
  4.760539E-01
  4.706591E-01
  4.668084E-01
  4.659978E-01
  4.649205E-01
  4.646591E-01
  4.645407E-01
  4.662187E-01
  4.668796E-01
  4.669475E-01
  4.649784E-01
  4.635908E-01
  4.627255E-01
  4.650086E-01
  4.682136E-01
  4.713835E-01
  4.711774E-01
  4.701935E-01
  4.690473E-01
  4.695756E-01
  4.687586E-01
  4.674873E-01
  4.650794E-01
  4.638965E-01
  4.626232E-01
  4.633685E-01
  4.648461E-01
  4.669509E-01
  4.661191E-01
  4.649600E-01
  4.652834E-01
  4.694908E-01
  4.728356E-01
  4.735886E-01
  4.704076E-01
  4.674116E-01
  4.650957E-01
  4.654773E-01
  4.659750E-01
  4.664481E-01
  4.651314E-01
  4.657489E-01
  4.685182E-01
  4.729435E-01
  4.730159E-01
  4.687961E-01
  4.624602E-01
  4.604277E-01
  4.621003E-01
  4.660613E-01
  4.681457E-01
  4.700793E-01
  4.711065E-01
  4.716803E-01
  4.687506E-01
  4.648276E-01
  4.610017E-01
  4.600962E-01
  4.600757E-01
  4.625290E-01
  4.670390E-01
  4.746616E-01
  4.801505E-01
  4.759235E-01
  4.738879E-01
  4.700577E-01
  4.664529E-01
  4.651077E-01
  4.646776E-01
  4.648650E-01
  4.646021E-01
  4.650000E-01
  4.655057E-01
  4.660887E-01
  4.647665E-01
  4.624142E-01
  4.605385E-01
  4.620714E-01
  4.655323E-01
  4.683712E-01
  4.675622E-01
  4.650642E-01
  4.632359E-01
  4.643617E-01
  4.663812E-01
  4.676917E-01
  4.665463E-01
  4.645378E-01
  4.626881E-01
  4.633939E-01
  4.659215E-01
  4.684848E-01
  4.676551E-01
  4.652655E-01
  4.646723E-01
  4.684463E-01
  4.729185E-01
  4.748289E-01
  4.726160E-01
  4.691926E-01
  4.660237E-01
  4.645890E-01
  4.637622E-01
  4.637571E-01
  4.639183E-01
  4.656578E-01
  4.682934E-01
  4.709360E-01
  4.703929E-01
  4.668782E-01
  4.621796E-01
  4.603182E-01
  4.614103E-01
  4.644211E-01
  4.666670E-01
  4.682765E-01
  4.682715E-01
  4.669805E-01
  4.643958E-01
  4.635435E-01
  4.649640E-01
  4.677378E-01
  4.684471E-01
  4.676966E-01
  4.673446E-01
  4.701027E-01
  4.738398E-01
  4.733324E-01
  4.696315E-01
  4.692343E-01
  4.666000E-01
  4.675801E-01
  4.646024E-01
  4.642517E-01
  4.610552E-01
  4.621783E-01
  4.610208E-01
  4.636151E-01
  4.630294E-01
  4.652638E-01
  4.636009E-01
  4.648154E-01
  4.627963E-01
  4.639874E-01
  4.615695E-01
  4.621531E-01
  4.601606E-01
  4.630877E-01
  4.645310E-01
  4.696011E-01
  4.698779E-01
  4.711295E-01
  4.681028E-01
  4.694616E-01
  4.692166E-01
  4.719283E-01
  4.694484E-01
  4.699113E-01
  4.696024E-01
  4.743933E-01
  4.737103E-01
  4.718977E-01
  4.650380E-01
  4.636978E-01
  4.625763E-01
  4.663813E-01
  4.663253E-01
  4.678693E-01
  4.653979E-01
  4.674449E-01
  4.681777E-01
  4.717893E-01
  4.687445E-01
  4.657363E-01
  4.597094E-01
  4.600394E-01
  4.599581E-01
  4.637100E-01
  4.635647E-01
  4.665237E-01
  4.665978E-01
  4.695617E-01
  4.682881E-01
  4.702514E-01
  4.702651E-01
  4.743113E-01
  4.738752E-01
  4.748060E-01
  4.720513E-01
  4.736199E-01
  4.724117E-01
  4.664138E-01
  4.648432E-01
  4.684587E-01
  4.650491E-01
  4.678839E-01
  4.650801E-01
  4.681609E-01
  4.636675E-01
  4.642665E-01
  4.595908E-01
  4.632381E-01
  4.622293E-01
  4.673953E-01
  4.659107E-01
  4.700560E-01
  4.667908E-01
  4.677109E-01
  4.609923E-01
  4.608166E-01
  4.571001E-01
  4.631221E-01
  4.652869E-01
  4.726043E-01
  4.701916E-01
  4.710740E-01
  4.659606E-01
  4.695800E-01
  4.689395E-01
  4.733354E-01
  4.685487E-01
  4.688908E-01
  4.653724E-01
  4.704901E-01
  4.687256E-01
  4.704351E-01
  4.648353E-01
  4.665722E-01
  4.633763E-01
  4.662372E-01
  4.626812E-01
  4.660935E-01
  4.646653E-01
  4.697976E-01
  4.677664E-01
  4.702244E-01
  4.652227E-01
  4.662479E-01
  4.619195E-01
  4.645626E-01