# vtk DataFile Version 2.0
title
ASCII
DATASET STRUCTURED_GRID
DIMENSIONS   64   64    1
POINTS   4096  float
  0.000000E+00  0.000000E+00  0.000000E+00
  0.000000E+00  3.906250E-01  0.000000E+00
  0.000000E+00  7.812500E-01  0.000000E+00
  0.000000E+00  1.171875E+00  0.000000E+00
  0.000000E+00  1.562500E+00  0.000000E+00
  0.000000E+00  1.953125E+00  0.000000E+00
  0.000000E+00  2.343750E+00  0.000000E+00
  0.000000E+00  2.734375E+00  0.000000E+00
  0.000000E+00  3.125000E+00  0.000000E+00
  0.000000E+00  3.515625E+00  0.000000E+00
  0.000000E+00  3.906250E+00  0.000000E+00
  0.000000E+00  4.296875E+00  0.000000E+00
  0.000000E+00  4.687500E+00  0.000000E+00
  0.000000E+00  5.078125E+00  0.000000E+00
  0.000000E+00  5.468750E+00  0.000000E+00
  0.000000E+00  5.859375E+00  0.000000E+00
  0.000000E+00  6.250000E+00  0.000000E+00
  0.000000E+00  6.640625E+00  0.000000E+00
  0.000000E+00  7.031250E+00  0.000000E+00
  0.000000E+00  7.421875E+00  0.000000E+00
  0.000000E+00  7.812500E+00  0.000000E+00
  0.000000E+00  8.203125E+00  0.000000E+00
  0.000000E+00  8.593750E+00  0.000000E+00
  0.000000E+00  8.984375E+00  0.000000E+00
  0.000000E+00  9.375000E+00  0.000000E+00
  0.000000E+00  9.765625E+00  0.000000E+00
  0.000000E+00  1.015625E+01  0.000000E+00
  0.000000E+00  1.054688E+01  0.000000E+00
  0.000000E+00  1.093750E+01  0.000000E+00
  0.000000E+00  1.132812E+01  0.000000E+00
  0.000000E+00  1.171875E+01  0.000000E+00
  0.000000E+00  1.210938E+01  0.000000E+00
  0.000000E+00  1.250000E+01  0.000000E+00
  0.000000E+00  1.289062E+01  0.000000E+00
  0.000000E+00  1.328125E+01  0.000000E+00
  0.000000E+00  1.367188E+01  0.000000E+00
  0.000000E+00  1.406250E+01  0.000000E+00
  0.000000E+00  1.445312E+01  0.000000E+00
  0.000000E+00  1.484375E+01  0.000000E+00
  0.000000E+00  1.523438E+01  0.000000E+00
  0.000000E+00  1.562500E+01  0.000000E+00
  0.000000E+00  1.601562E+01  0.000000E+00
  0.000000E+00  1.640625E+01  0.000000E+00
  0.000000E+00  1.679688E+01  0.000000E+00
  0.000000E+00  1.718750E+01  0.000000E+00
  0.000000E+00  1.757812E+01  0.000000E+00
  0.000000E+00  1.796875E+01  0.000000E+00
  0.000000E+00  1.835938E+01  0.000000E+00
  0.000000E+00  1.875000E+01  0.000000E+00
  0.000000E+00  1.914062E+01  0.000000E+00
  0.000000E+00  1.953125E+01  0.000000E+00
  0.000000E+00  1.992188E+01  0.000000E+00
  0.000000E+00  2.031250E+01  0.000000E+00
  0.000000E+00  2.070312E+01  0.000000E+00
  0.000000E+00  2.109375E+01  0.000000E+00
  0.000000E+00  2.148438E+01  0.000000E+00
  0.000000E+00  2.187500E+01  0.000000E+00
  0.000000E+00  2.226562E+01  0.000000E+00
  0.000000E+00  2.265625E+01  0.000000E+00
  0.000000E+00  2.304688E+01  0.000000E+00
  0.000000E+00  2.343750E+01  0.000000E+00
  0.000000E+00  2.382812E+01  0.000000E+00
  0.000000E+00  2.421875E+01  0.000000E+00
  0.000000E+00  2.460938E+01  0.000000E+00
  3.906250E-01  0.000000E+00  0.000000E+00
  3.906250E-01  3.906250E-01  0.000000E+00
  3.906250E-01  7.812500E-01  0.000000E+00
  3.906250E-01  1.171875E+00  0.000000E+00
  3.906250E-01  1.562500E+00  0.000000E+00
  3.906250E-01  1.953125E+00  0.000000E+00
  3.906250E-01  2.343750E+00  0.000000E+00
  3.906250E-01  2.734375E+00  0.000000E+00
  3.906250E-01  3.125000E+00  0.000000E+00
  3.906250E-01  3.515625E+00  0.000000E+00
  3.906250E-01  3.906250E+00  0.000000E+00
  3.906250E-01  4.296875E+00  0.000000E+00
  3.906250E-01  4.687500E+00  0.000000E+00
  3.906250E-01  5.078125E+00  0.000000E+00
  3.906250E-01  5.468750E+00  0.000000E+00
  3.906250E-01  5.859375E+00  0.000000E+00
  3.906250E-01  6.250000E+00  0.000000E+00
  3.906250E-01  6.640625E+00  0.000000E+00
  3.906250E-01  7.031250E+00  0.000000E+00
  3.906250E-01  7.421875E+00  0.000000E+00
  3.906250E-01  7.812500E+00  0.000000E+00
  3.906250E-01  8.203125E+00  0.000000E+00
  3.906250E-01  8.593750E+00  0.000000E+00
  3.906250E-01  8.984375E+00  0.000000E+00
  3.906250E-01  9.375000E+00  0.000000E+00
  3.906250E-01  9.765625E+00  0.000000E+00
  3.906250E-01  1.015625E+01  0.000000E+00
  3.906250E-01  1.054688E+01  0.000000E+00
  3.906250E-01  1.093750E+01  0.000000E+00
  3.906250E-01  1.132812E+01  0.000000E+00
  3.906250E-01  1.171875E+01  0.000000E+00
  3.906250E-01  1.210938E+01  0.000000E+00
  3.906250E-01  1.250000E+01  0.000000E+00
  3.906250E-01  1.289062E+01  0.000000E+00
  3.906250E-01  1.328125E+01  0.000000E+00
  3.906250E-01  1.367188E+01  0.000000E+00
  3.906250E-01  1.406250E+01  0.000000E+00
  3.906250E-01  1.445312E+01  0.000000E+00
  3.906250E-01  1.484375E+01  0.000000E+00
  3.906250E-01  1.523438E+01  0.000000E+00
  3.906250E-01  1.562500E+01  0.000000E+00
  3.906250E-01  1.601562E+01  0.000000E+00
  3.906250E-01  1.640625E+01  0.000000E+00
  3.906250E-01  1.679688E+01  0.000000E+00
  3.906250E-01  1.718750E+01  0.000000E+00
  3.906250E-01  1.757812E+01  0.000000E+00
  3.906250E-01  1.796875E+01  0.000000E+00
  3.906250E-01  1.835938E+01  0.000000E+00
  3.906250E-01  1.875000E+01  0.000000E+00
  3.906250E-01  1.914062E+01  0.000000E+00
  3.906250E-01  1.953125E+01  0.000000E+00
  3.906250E-01  1.992188E+01  0.000000E+00
  3.906250E-01  2.031250E+01  0.000000E+00
  3.906250E-01  2.070312E+01  0.000000E+00
  3.906250E-01  2.109375E+01  0.000000E+00
  3.906250E-01  2.148438E+01  0.000000E+00
  3.906250E-01  2.187500E+01  0.000000E+00
  3.906250E-01  2.226562E+01  0.000000E+00
  3.906250E-01  2.265625E+01  0.000000E+00
  3.906250E-01  2.304688E+01  0.000000E+00
  3.906250E-01  2.343750E+01  0.000000E+00
  3.906250E-01  2.382812E+01  0.000000E+00
  3.906250E-01  2.421875E+01  0.000000E+00
  3.906250E-01  2.460938E+01  0.000000E+00
  7.812500E-01  0.000000E+00  0.000000E+00
  7.812500E-01  3.906250E-01  0.000000E+00
  7.812500E-01  7.812500E-01  0.000000E+00
  7.812500E-01  1.171875E+00  0.000000E+00
  7.812500E-01  1.562500E+00  0.000000E+00
  7.812500E-01  1.953125E+00  0.000000E+00
  7.812500E-01  2.343750E+00  0.000000E+00
  7.812500E-01  2.734375E+00  0.000000E+00
  7.812500E-01  3.125000E+00  0.000000E+00
  7.812500E-01  3.515625E+00  0.000000E+00
  7.812500E-01  3.906250E+00  0.000000E+00
  7.812500E-01  4.296875E+00  0.000000E+00
  7.812500E-01  4.687500E+00  0.000000E+00
  7.812500E-01  5.078125E+00  0.000000E+00
  7.812500E-01  5.468750E+00  0.000000E+00
  7.812500E-01  5.859375E+00  0.000000E+00
  7.812500E-01  6.250000E+00  0.000000E+00
  7.812500E-01  6.640625E+00  0.000000E+00
  7.812500E-01  7.031250E+00  0.000000E+00
  7.812500E-01  7.421875E+00  0.000000E+00
  7.812500E-01  7.812500E+00  0.000000E+00
  7.812500E-01  8.203125E+00  0.000000E+00
  7.812500E-01  8.593750E+00  0.000000E+00
  7.812500E-01  8.984375E+00  0.000000E+00
  7.812500E-01  9.375000E+00  0.000000E+00
  7.812500E-01  9.765625E+00  0.000000E+00
  7.812500E-01  1.015625E+01  0.000000E+00
  7.812500E-01  1.054688E+01  0.000000E+00
  7.812500E-01  1.093750E+01  0.000000E+00
  7.812500E-01  1.132812E+01  0.000000E+00
  7.812500E-01  1.171875E+01  0.000000E+00
  7.812500E-01  1.210938E+01  0.000000E+00
  7.812500E-01  1.250000E+01  0.000000E+00
  7.812500E-01  1.289062E+01  0.000000E+00
  7.812500E-01  1.328125E+01  0.000000E+00
  7.812500E-01  1.367188E+01  0.000000E+00
  7.812500E-01  1.406250E+01  0.000000E+00
  7.812500E-01  1.445312E+01  0.000000E+00
  7.812500E-01  1.484375E+01  0.000000E+00
  7.812500E-01  1.523438E+01  0.000000E+00
  7.812500E-01  1.562500E+01  0.000000E+00
  7.812500E-01  1.601562E+01  0.000000E+00
  7.812500E-01  1.640625E+01  0.000000E+00
  7.812500E-01  1.679688E+01  0.000000E+00
  7.812500E-01  1.718750E+01  0.000000E+00
  7.812500E-01  1.757812E+01  0.000000E+00
  7.812500E-01  1.796875E+01  0.000000E+00
  7.812500E-01  1.835938E+01  0.000000E+00
  7.812500E-01  1.875000E+01  0.000000E+00
  7.812500E-01  1.914062E+01  0.000000E+00
  7.812500E-01  1.953125E+01  0.000000E+00
  7.812500E-01  1.992188E+01  0.000000E+00
  7.812500E-01  2.031250E+01  0.000000E+00
  7.812500E-01  2.070312E+01  0.000000E+00
  7.812500E-01  2.109375E+01  0.000000E+00
  7.812500E-01  2.148438E+01  0.000000E+00
  7.812500E-01  2.187500E+01  0.000000E+00
  7.812500E-01  2.226562E+01  0.000000E+00
  7.812500E-01  2.265625E+01  0.000000E+00
  7.812500E-01  2.304688E+01  0.000000E+00
  7.812500E-01  2.343750E+01  0.000000E+00
  7.812500E-01  2.382812E+01  0.000000E+00
  7.812500E-01  2.421875E+01  0.000000E+00
  7.812500E-01  2.460938E+01  0.000000E+00
  1.171875E+00  0.000000E+00  0.000000E+00
  1.171875E+00  3.906250E-01  0.000000E+00
  1.171875E+00  7.812500E-01  0.000000E+00
  1.171875E+00  1.171875E+00  0.000000E+00
  1.171875E+00  1.562500E+00  0.000000E+00
  1.171875E+00  1.953125E+00  0.000000E+00
  1.171875E+00  2.343750E+00  0.000000E+00
  1.171875E+00  2.734375E+00  0.000000E+00
  1.171875E+00  3.125000E+00  0.000000E+00
  1.171875E+00  3.515625E+00  0.000000E+00
  1.171875E+00  3.906250E+00  0.000000E+00
  1.171875E+00  4.296875E+00  0.000000E+00
  1.171875E+00  4.687500E+00  0.000000E+00
  1.171875E+00  5.078125E+00  0.000000E+00
  1.171875E+00  5.468750E+00  0.000000E+00
  1.171875E+00  5.859375E+00  0.000000E+00
  1.171875E+00  6.250000E+00  0.000000E+00
  1.171875E+00  6.640625E+00  0.000000E+00
  1.171875E+00  7.031250E+00  0.000000E+00
  1.171875E+00  7.421875E+00  0.000000E+00
  1.171875E+00  7.812500E+00  0.000000E+00
  1.171875E+00  8.203125E+00  0.000000E+00
  1.171875E+00  8.593750E+00  0.000000E+00
  1.171875E+00  8.984375E+00  0.000000E+00
  1.171875E+00  9.375000E+00  0.000000E+00
  1.171875E+00  9.765625E+00  0.000000E+00
  1.171875E+00  1.015625E+01  0.000000E+00
  1.171875E+00  1.054688E+01  0.000000E+00
  1.171875E+00  1.093750E+01  0.000000E+00
  1.171875E+00  1.132812E+01  0.000000E+00
  1.171875E+00  1.171875E+01  0.000000E+00
  1.171875E+00  1.210938E+01  0.000000E+00
  1.171875E+00  1.250000E+01  0.000000E+00
  1.171875E+00  1.289062E+01  0.000000E+00
  1.171875E+00  1.328125E+01  0.000000E+00
  1.171875E+00  1.367188E+01  0.000000E+00
  1.171875E+00  1.406250E+01  0.000000E+00
  1.171875E+00  1.445312E+01  0.000000E+00
[...]
POINT_DATA   4096
SCALARS CON  float  1
LOOKUP_TABLE default
  4.712259E-01
  4.710140E-01
  4.768082E-01
  4.739222E-01
  4.743630E-01
  4.678242E-01
  4.696536E-01
  4.682715E-01
  4.741471E-01
  4.721108E-01
  4.736056E-01
  4.674020E-01
  4.679478E-01
  4.640243E-01
  4.681247E-01
  4.673350E-01
  4.731601E-01
  4.719275E-01
  4.750058E-01
  4.697938E-01
  4.698608E-01
  4.641643E-01
  4.656382E-01
  4.613844E-01
  4.632245E-01
  4.592397E-01
  4.631032E-01
  4.632855E-01
  4.711119E-01
  4.714980E-01
  4.747357E-01
  4.688475E-01
  4.691958E-01
  4.659015E-01
  4.712076E-01
  4.701305E-01
  4.727741E-01
  4.667655E-01
  4.665855E-01
  4.616354E-01
  4.644338E-01
  4.615223E-01
  4.642992E-01
  4.602603E-01
  4.624438E-01
  4.596497E-01
  4.653739E-01
  4.674589E-01
  4.765399E-01
  4.767595E-01
  4.779927E-01
  4.684683E-01
  4.647787E-01
  4.591094E-01
  4.658015E-01
  4.707944E-01
  4.820437E-01
  4.827592E-01
  4.843394E-01
  4.764274E-01
  4.746874E-01
  4.683440E-01
  4.698835E-01
  4.666368E-01
  4.712789E-01
  4.727269E-01
  4.802905E-01
  4.797070E-01
  4.792595E-01
  4.703354E-01
  4.678386E-01
  4.641739E-01
  4.690239E-01
  4.691897E-01
  4.731580E-01
  4.703838E-01
  4.720447E-01
  4.679925E-01
  4.689570E-01
  4.655137E-01
  4.692649E-01
  4.695311E-01
  4.746672E-01
  4.719278E-01
  4.715856E-01
  4.652118E-01
  4.655916E-01
  4.629597E-01
  4.665703E-01
  4.645948E-01
  4.672445E-01
  4.650720E-01
  4.692903E-01
  4.689628E-01
  4.731021E-01
  4.702858E-01
  4.714117E-01
  4.671591E-01
  4.686181E-01
  4.652043E-01
  4.671493E-01
  4.642465E-01
  4.671084E-01
  4.647007E-01
  4.663998E-01
  4.614912E-01
  4.613337E-01
  4.568258E-01
  4.589744E-01
  4.575938E-01
  4.634781E-01
  4.665417E-01
  4.757711E-01
  4.771844E-01
  4.783015E-01
  4.694677E-01
  4.660398E-01
  4.626747E-01
  4.711164E-01
  4.775775E-01
  4.868015E-01
  4.844527E-01
  4.820078E-01
  4.730429E-01
  4.715338E-01
  4.674301E-01
  4.696667E-01
  4.671062E-01
  4.639346E-01
  4.717741E-01
  4.806389E-01
  4.823415E-01
  4.794090E-01
  4.711573E-01
  4.663616E-01
  4.640017E-01
  4.671837E-01
  4.695331E-01
  4.727499E-01
  4.723826E-01
  4.726000E-01
  4.701454E-01
  4.695171E-01
  4.677747E-01
  4.693218E-01
  4.700123E-01
  4.724295E-01
  4.715709E-01
  4.711310E-01
  4.681903E-01
  4.675499E-01
  4.657000E-01
  4.661106E-01
  4.646418E-01
  4.651962E-01
  4.643212E-01
  4.657905E-01
  4.651431E-01
  4.655261E-01
  4.634052E-01
  4.638766E-01
  4.642210E-01
  4.677873E-01
  4.689110E-01
  4.698550E-01
  4.670365E-01
  4.657930E-01
  4.633271E-01
  4.630323E-01
  4.602018E-01
  4.586066E-01
  4.555547E-01
  4.561488E-01
  4.573502E-01
  4.629090E-01
  4.682316E-01
  4.752172E-01
  4.773526E-01
  4.767115E-01
  4.705153E-01
  4.663195E-01
  4.642158E-01
  4.694430E-01
  4.761796E-01
  4.838281E-01
  4.845495E-01
  4.812748E-01
  4.724275E-01
  4.652062E-01
  4.582379E-01
  4.565574E-01
  4.571179E-01
  4.633371E-01
  4.723949E-01
  4.789055E-01
  4.830076E-01
  4.773302E-01
  4.697028E-01
  4.606780E-01
  4.591177E-01
  4.601909E-01
  4.663935E-01
  4.700831E-01
  4.746243E-01
  4.742398E-01
  4.737977E-01
  4.691654E-01
  4.674517E-01
  4.657762E-01
  4.694481E-01
  4.715291E-01
  4.744201E-01
  4.721034E-01
  4.708596E-01
  4.677564E-01
  4.687891E-01
  4.682342E-01
  4.695558E-01
  4.668920E-01
  4.658206E-01
  4.628869E-01
  4.642117E-01
  4.645828E-01
  4.675757E-01
  4.668350E-01
  4.670521E-01
  4.640258E-01
  4.639507E-01
  4.627773E-01
  4.656471E-01
  4.666449E-01
  4.689708E-01
  4.662370E-01
  4.639305E-01
  4.593583E-01
  4.596630E-01
  4.601348E-01
  4.643154E-01
  4.659499E-01
  4.699347E-01
  4.712932E-01
  4.738926E-01
  4.712294E-01
  4.687303E-01
  4.643727E-01
  4.664095E-01
  4.704707E-01
  4.785982E-01
  4.812936E-01
  4.809912E-01
  4.737491E-01
  4.679805E-01
  4.614120E-01
  4.596816E-01
  4.574422E-01
  4.599494E-01
  4.601053E-01
  4.715580E-01
  4.752937E-01
  4.797875E-01
  4.717175E-01
  4.669668E-01
  4.577180E-01
  4.590445E-01
  4.583822E-01
  4.660782E-01
  4.674966E-01
  4.734770E-01
  4.708623E-01
  4.725306E-01
  4.672482E-01
  4.690137E-01
  4.662339E-01
  4.710532E-01
  4.699170E-01
  4.742291E-01
  4.710246E-01
  4.729695E-01
  4.679706E-01
  4.689650E-01
  4.639282E-01
  4.655607E-01
  4.614370E-01
  4.638971E-01
  4.606097E-01
  4.641041E-01
  4.618387E-01
  4.657830E-01
  4.631848E-01
  4.666525E-01
  4.640886E-01
  4.679290E-01
  4.654266E-01
  4.688421E-01
  4.657118E-01
  4.682273E-01
  4.635488E-01
  4.644790E-01
  4.600026E-01
  4.639731E-01
  4.640010E-01
  4.707586E-01
  4.697857E-01
  4.730359E-01
  4.688431E-01
  4.704837E-01
  4.655173E-01
  4.664052E-01
  4.615552E-01
  4.647381E-01
  4.642393E-01
  4.716080E-01
  4.722573E-01
  4.766181E-01
  4.713893E-01
  4.698106E-01
  4.609298E-01
  4.589059E-01
  4.531188E-01
  4.574739E-01
  4.649881E-01
  4.722383E-01
  4.723922E-01
  4.766166E-01
  4.686701E-01
  4.650730E-01
  4.552164E-01
  4.564234E-01
  4.547374E-01
  4.629729E-01
  4.645291E-01
  4.719629E-01
  4.695161E-01
  4.716747E-01
  4.652580E-01
  4.670934E-01
  4.644353E-01
  4.715674E-01
  4.718699E-01
  4.774914E-01
  4.728529E-01
  4.734198E-01
  4.663116E-01
  4.673735E-01
  4.624143E-01
  4.653837E-01
  4.611346E-01
  4.641039E-01
  4.607792E-01
  4.666535E-01
  4.669529E-01
  4.740453E-01
  4.709095E-01
  4.715597E-01
  4.634797E-01
  4.642381E-01
  4.611716E-01
  4.681548E-01
  4.681968E-01
  4.730947E-01
  4.674006E-01
  4.675937E-01
  4.626102E-01
  4.689176E-01
  4.705711E-01
  4.781563E-01
  4.741867E-01
  4.739453E-01
  4.658134E-01
  4.664294E-01
  4.611924E-01
  4.637149E-01
  4.596701E-01
  4.644021E-01
  4.635474E-01
  4.701002E-01
  4.677028E-01
  4.704435E-01
  4.650881E-01
  4.677624E-01
  4.642543E-01
  4.680796E-01
  4.639955E-01
  4.672312E-01
  4.641739E-01
  4.698649E-01
  4.695238E-01
  4.725069E-01
  4.668532E-01
  4.655839E-01
  4.594282E-01
  4.611244E-01
  4.594179E-01
  4.648853E-01
  4.648529E-01
  4.694171E-01
  4.664587E-01
  4.680508E-01
  4.643179E-01
  4.680756E-01
  4.679970E-01
  4.743257E-01
  4.740281E-01
  4.776433E-01
  4.734652E-01
  4.732767E-01
  4.660592E-01
  4.642439E-01
  4.578079E-01
  4.592482E-01
  4.572602E-01
  4.623691E-01
  4.623395E-01
  4.681947E-01
  4.681719E-01
  4.729257E-01
  4.702105E-01
  4.718480E-01
  4.677400E-01
  4.705316E-01
  4.687030E-01
  4.726175E-01
  4.696667E-01
  4.708825E-01
  4.653525E-01
  4.660791E-01
  4.634539E-01
  4.696546E-01
  4.718290E-01
  4.782847E-01
  4.749991E-01
  4.738907E-01
  4.661564E-01
  4.657204E-01
  4.615877E-01
  4.640828E-01
  4.608186E-01
  4.631840E-01
  4.603095E-01
  4.638731E-01
  4.623031E-01
  4.667334E-01
  4.654668E-01
  4.695235E-01
  4.668470E-01
  4.685921E-01
  4.639565E-01
  4.658895E-01
  4.669166E-01
  4.676061E-01
  4.675477E-01
  4.704666E-01
  4.690047E-01
  4.683379E-01
  4.642675E-01
  4.639077E-01
  4.626919E-01
  4.658601E-01
  4.669196E-01
  4.699708E-01
  4.685413E-01
  4.682796E-01
  4.652158E-01
  4.668152E-01
  4.685787E-01
  4.748911E-01
  4.776293E-01
  4.799364E-01
  4.757446E-01
  4.719459E-01
  4.651818E-01
  4.627033E-01
  4.598488E-01
  4.617670E-01
  4.619997E-01
  4.651178E-01
  4.657953E-01
  4.702964E-01
  4.731260E-01
  4.779902E-01
  4.770583E-01
  4.754057E-01
  4.697858E-01
  4.688083E-01
  4.683500E-01
  4.725462E-01
  4.731455E-01
  4.736772E-01
  4.689793E-01
  4.670217E-01
  4.651332E-01
  4.695754E-01
  4.727016E-01
  4.764027E-01
  4.733252E-01
  4.705365E-01
  4.656597E-01
  4.657763E-01
  4.645780E-01
  4.660144E-01
  4.643959E-01
  4.660372E-01
  4.656997E-01
  4.677091E-01
  4.654265E-01
  4.648475E-01
  4.625926E-01
  4.657124E-01
  4.680714E-01
  4.725909E-01
  4.716078E-01
  4.707926E-01
  4.618773E-01
  4.629731E-01
  4.651085E-01
  4.681057E-01
  4.701227E-01
  4.715330E-01
  4.714884E-01
  4.712777E-01
  4.706907E-01
  4.710146E-01
  4.711052E-01
  4.709638E-01
  4.692281E-01
  4.674854E-01
  4.664922E-01
  4.682739E-01
  4.716054E-01
  4.756272E-01
  4.775823E-01
  4.774042E-01
  4.744491E-01
  4.704570E-01
  4.656120E-01
  4.620166E-01
  4.601015E-01
  4.613117E-01
  4.640115E-01
  4.673210E-01
  4.690870E-01
  4.701916E-01
  4.705239E-01
  4.713143E-01
  4.715469E-01
  4.722123E-01
  4.730071E-01
  4.748840E-01
  4.759201E-01
  4.755288E-01
  4.724265E-01
  4.686119E-01
  4.650470E-01
  4.639114E-01
  4.645509E-01
  4.669853E-01
  4.688990E-01
  4.698524E-01
  4.687874E-01
  4.677348E-01
  4.672632E-01
  4.685054E-01
  4.694871E-01
  4.698347E-01
  4.686506E-01
  4.678339E-01
  4.673451E-01
  4.678059E-01
  4.675702E-01
  4.672548E-01
  4.665410E-01
  4.667866E-01
  4.667999E-01
  4.665382E-01
  4.647344E-01
  4.630142E-01
  4.621992E-01
  4.611592E-01
  4.636348E-01
  4.676737E-01
  4.716983E-01
  4.733200E-01
  4.731994E-01
  4.718154E-01
  4.713014E-01
  4.715790E-01
  4.728941E-01
  4.732611E-01
  4.723274E-01
  4.694898E-01
  4.670286E-01
  4.662556E-01
  4.688623E-01
  4.730120E-01
  4.767394E-01
  4.768985E-01
  4.738112E-01
  4.685394E-01
  4.644668E-01
  4.628322E-01
  4.647597E-01
  4.682799E-01
  4.718884E-01
  4.730322E-01
  4.723991E-01
  4.709464E-01
  4.710156E-01
  4.717813E-01
  4.725367E-01
  4.716861E-01
  4.707249E-01
  4.703157E-01
  4.714236E-01
  4.720298E-01
  4.713907E-01
  4.686459E-01
  4.658887E-01
  4.641453E-01
  4.649039E-01
  4.665674E-01
  4.680025E-01
  4.673054E-01
  4.659689E-01
  4.653604E-01
  4.674386E-01
  4.703653E-01
  4.724135E-01
  4.717157E-01
  4.704684E-01
  4.703380E-01
  4.725697E-01
  4.743411E-01
  4.738667E-01
  4.702726E-01
  4.667761E-01
  4.652768E-01
  4.667374E-01
  4.682168E-01
  4.680123E-01
  4.650847E-01
  4.581385E-01
  4.596800E-01
  4.624225E-01
  4.667660E-01
  4.702796E-01
  4.732095E-01
  4.737417E-01
  4.735682E-01
  4.724781E-01
  4.726664E-01
  4.726676E-01
  4.726751E-01
  4.705604E-01
  4.681737E-01
  4.658855E-01
  4.663743E-01
  4.683271E-01
  4.716734E-01
  4.733788E-01
  4.736298E-01
  4.710833E-01
  4.679286E-01
  4.642803E-01
  4.629690E-01
  4.638010E-01
  4.678874E-01
  4.720780E-01
  4.750266E-01
  4.738966E-01
  4.707327E-01
  4.664729E-01
  4.644023E-01
  4.640098E-01
  4.663780E-01
  4.693970E-01
  4.728774E-01
  4.736220E-01
  4.717963E-01
  4.669276E-01
  4.627966E-01
  4.604385E-01
  4.616339E-01
  4.636492E-01
  4.657367E-01
  4.655808E-01
  4.651160E-01
  4.646776E-01
  4.667591E-01
  4.697258E-01
  4.730352E-01
  4.734420E-01
  4.719284E-01
  4.689105E-01
  4.679977E-01
  4.688793E-01
  4.718237E-01
  4.735644E-01
  4.741660E-01
  4.724784E-01
  4.706033E-01
  4.676948E-01
  4.650556E-01
  4.615858E-01
  4.593723E-01
  4.612621E-01
  4.616755E-01
  4.627391E-01
  4.676151E-01
  4.698339E-01
  4.720957E-01
  4.699261E-01
  4.690293E-01
  4.667787E-01
  4.684090E-01
  4.690361E-01
  4.714339E-01
  4.698009E-01
  4.683684E-01
  4.642544E-01
  4.639419E-01
  4.644100E-01
  4.693990E-01
  4.722490E-01
  4.747686E-01
  4.716042E-01
  4.684168E-01
  4.635124E-01
  4.635789E-01
  4.650096E-01
  4.708637E-01
  4.741926E-01
  4.769602E-01
  4.742549E-01
  4.720634E-01
  4.682125E-01
  4.679802E-01
  4.664128E-01
  4.669954E-01
  4.653923E-01
  4.664940E-01
  4.659678E-01
  4.673344E-01
  4.654751E-01
  4.649727E-01
  4.626371E-01
  4.638569E-01
  4.643189E-01
  4.672439E-01
  4.670015E-01
  4.677383E-01
  4.663099E-01
  4.684725E-01
  4.698055E-01
  4.727411E-01
  4.708956E-01
  4.688060E-01
  4.647399E-01
  4.658043E-01
  4.680307E-01
  4.734001E-01
  4.746512E-01
  4.752234E-01
  4.721894E-01
  4.718408E-01
  4.702584E-01
  4.706624E-01
  4.674813E-01
  4.652472E-01
  4.597906E-01
  4.626504E-01
  4.632839E-01
  4.673894E-01
  4.681117E-01
  4.709543E-01
  4.690889E-01
  4.691575E-01
  4.660781E-01
  4.671817E-01
  4.661106E-01
  4.680093E-01
  4.656808E-01
  4.657274E-01
  4.631669E-01
  4.652788E-01
  4.657787E-01
  4.700877E-01
  4.709212E-01
  4.737080E-01
  4.715165E-01
  4.705311E-01
  4.652474E-01
  4.636489E-01
  4.613230E-01
  4.652313E-01
  4.679248E-01
  4.730976E-01
  4.722536E-01
  4.714427E-01
  4.660471E-01
  4.645506E-01
  4.620337E-01
  4.648226E-01
  4.657309E-01
  4.695175E-01
  4.684563E-01
  4.683217E-01
  4.637860E-01
  4.629532E-01
  4.609223E-01
  4.638530E-01
  4.642385E-01
  4.671023E-01
  4.659556E-01
  4.678219E-01
  4.672408E-01
  4.704583E-01
  4.701814E-01
  4.714334E-01
  4.674915E-01
  4.655966E-01
  4.612881E-01
  4.623132E-01
  4.627694E-01
  4.680737E-01
  4.705665E-01
  4.752292E-01
  4.748412E-01
  4.752818E-01
  4.704755E-01
  4.677446E-01
  4.622965E-01
  4.616101E-01
  4.650031E-01
  4.655964E-01
  4.650805E-01
  4.679869E-01
  4.684586E-01
  4.699798E-01
  4.673705E-01
  4.662327E-01
  4.632598E-01
  4.641378E-01
  4.639122E-01
  4.662483E-01
  4.653812E-01
  4.659047E-01
  4.638535E-01
  4.651081E-01
  4.656511E-01
  4.700298E-01
  4.723334E-01
  4.757047E-01
  4.741321E-01
  4.723646E-01
  4.669451E-01
  4.646230E-01
  4.621865E-01
  4.646201E-01
  4.660926E-01
  4.696560E-01
  4.694347E-01
  4.703533E-01
  4.685846E-01
  4.694515E-01
  4.678541E-01
  4.679452E-01
  4.650638E-01
  4.648593E-01
  4.634594E-01
  4.656394E-01
  4.658414E-01
  4.678841E-01
  4.666998E-01
  4.674997E-01
  4.662709E-01
  4.680611E-01
  4.677290E-01
  4.694256E-01
  4.681947E-01
  4.690073E-01
  4.671420E-01
  4.669773E-01
  4.635960E-01
  4.625903E-01
  4.607684E-01
  4.637739E-01
  4.661416E-01
  4.706833E-01
  4.710611E-01
  4.719411E-01
  4.696180E-01
  4.699184E-01
  4.683460E-01
  4.692701E-01
  4.674313E-01
  4.674542E-01
  4.660644E-01
  4.674655E-01
  4.669741E-01
  4.670269E-01
  4.673064E-01
  4.687875E-01
  4.690817E-01
  4.688146E-01
  4.671257E-01
  4.661140E-01
  4.648299E-01
  4.643475E-01
  4.634569E-01
  4.640774E-01
  4.654657E-01
  4.684304E-01
  4.704991E-01
  4.722136E-01
  4.726916E-01
  4.738948E-01
  4.742358E-01
  4.736406E-01
  4.698372E-01
  4.648727E-01
  4.598429E-01
  4.583112E-01
  4.595560E-01
  4.632519E-01
  4.656244E-01
  4.664378E-01
  4.649236E-01
  4.641470E-01
  4.642504E-01
  4.664811E-01
  4.683457E-01
  4.697480E-01
  4.688931E-01
  4.676524E-01
  4.659120E-01
  4.657545E-01
  4.658537E-01
  4.668197E-01
  4.668426E-01
  4.672311E-01
  4.670775E-01
  4.677444E-01
  4.675348E-01
  4.671648E-01
  4.652663E-01
  4.637212E-01
  4.622426E-01
  4.627923E-01
  4.639709E-01
  4.661692E-01
  4.672036E-01
  4.680808E-01
  4.678900E-01
  4.681493E-01
  4.672103E-01
  4.658624E-01
  4.631928E-01
  4.618346E-01
  4.617611E-01
  4.640979E-01
  4.742196E-01
  4.721493E-01
  4.698130E-01
  4.673297E-01
  4.673192E-01
  4.672176E-01
  4.678882E-01
  4.670626E-01
  4.668994E-01
  4.658274E-01
  4.657333E-01
  4.646833E-01
  4.648489E-01
  4.648851E-01
  4.669182E-01
  4.686708E-01
  4.712796E-01
  4.723986E-01
  4.739987E-01
  4.743254E-01
  4.748915E-01
  4.730300E-01
  4.702811E-01
  4.654810E-01
  4.620750E-01
  4.595732E-01
  4.601734E-01
  4.611608E-01
  4.631974E-01
  4.638768E-01
  4.655099E-01
  4.667571E-01
  4.691521E-01
  4.696463E-01
  4.693185E-01
  4.668421E-01
  4.657183E-01
  4.653079E-01
  4.672894E-01
  4.684019E-01
  4.693266E-01
  4.682703E-01
  4.682762E-01
  4.683059E-01
  4.697305E-01
  4.692306E-01
  4.678454E-01
  4.643266E-01
  4.621067E-01
  4.605555E-01
  4.619446E-01
  4.641583E-01
  4.683779E-01
  4.714403E-01
  4.735874E-01
  4.718066E-01
  4.682985E-01
  4.628326E-01
  4.593171E-01
  4.573340E-01
  4.593054E-01
  4.629493E-01
  4.686786E-01
  4.724059E-01
  4.764290E-01
  4.751285E-01
  4.716223E-01
  4.667400E-01
  4.653710E-01
  4.654901E-01
  4.679627E-01
  4.688440E-01
  4.697190E-01
  4.682288E-01
  4.669122E-01
  4.639768E-01
  4.629627E-01
  4.629862E-01
  4.667149E-01
  4.702607E-01
  4.734703E-01
  4.728158E-01
  4.718389E-01
  4.703868E-01
  4.715540E-01
  4.715024E-01
  4.703877E-01
  4.653688E-01
  4.607095E-01
  4.568896E-01
  4.575919E-01
  4.594244E-01
  4.622249E-01
  4.620661E-01
  4.619649E-01
  4.617627E-01
  4.651495E-01
  4.689302E-01
  4.729953E-01
  4.730344E-01
  4.713905E-01
  4.674329E-01
  4.654077E-01
  4.638631E-01
  4.648522E-01
  4.653689E-01
  4.673052E-01
  4.681037E-01
  4.696157E-01
  4.687117E-01
  4.672701E-01
  4.635423E-01
  4.614105E-01
  4.602081E-01
  4.629765E-01
  4.666274E-01
  4.714301E-01
  4.727978E-01
  4.720512E-01
  4.677224E-01
  4.641036E-01
  4.603023E-01
  4.588275E-01
  4.571124E-01
  4.579570E-01
  4.601827E-01
  4.663151E-01
  4.720511E-01
  4.816414E-01
  4.776114E-01
  4.726285E-01
  4.672237E-01
  4.652012E-01
  4.639564E-01
  4.648624E-01
  4.648834E-01
  4.660092E-01
  4.655802E-01
  4.656373E-01
  4.639822E-01
  4.637264E-01
  4.634647E-01
  4.657558E-01
  4.674314E-01
  4.695305E-01
  4.690670E-01
  4.689491E-01
  4.679418E-01
  4.688706E-01
  4.687591E-01
  4.688355E-01
  4.663473E-01
  4.644848E-01
  4.623037E-01
  4.628113E-01
  4.630938E-01
  4.643831E-01
  4.640846E-01
  4.655026E-01
  4.672894E-01
  4.712622E-01
  4.730548E-01
  4.732490E-01
  4.697594E-01
  4.670498E-01
  4.647356E-01
  4.653670E-01
  4.653925E-01
  4.661574E-01
  4.657018E-01
  4.674595E-01
  4.692180E-01
  4.716843E-01
  4.703872E-01
  4.672442E-01
  4.618590E-01
  4.593481E-01
  4.589524E-01
  4.626544E-01
  4.666020E-01
  4.713512E-01
  4.730441E-01
  4.731268E-01
  4.693377E-01
  4.652147E-01
  4.601912E-01
  4.581781E-01
  4.578415E-01
  4.618812E-01
  4.675114E-01
  4.752986E-01
  4.800331E-01
  4.769412E-01
  4.744408E-01
  4.714954E-01
  4.659428E-01
  4.644569E-01
  4.629020E-01
  4.648098E-01
  4.644554E-01
  4.658173E-01
  4.642914E-01
  4.644654E-01
  4.620627E-01
  4.624232E-01
  4.620132E-01
  4.654711E-01
  4.667967E-01
  4.684784E-01
  4.653162E-01
  4.635787E-01
  4.613718E-01
  4.643267E-01
  4.663970E-01
  4.693488E-01
  4.671613E-01
  4.655893E-01
  4.626759E-01
  4.644557E-01
  4.654558E-01
  4.679597E-01
  4.662349E-01
  4.660365E-01
  4.651282E-01
  4.690308E-01
  4.717203E-01
  4.751381E-01
  4.731475E-01
  4.708883E-01
  4.656499E-01
  4.636490E-01
  4.610875E-01
  4.625045E-01
  4.630719E-01
  4.668069E-01
  4.682105E-01
  4.705258E-01
  4.682055E-01
  4.660450E-01
  4.610284E-01
  4.596808E-01
  4.587688E-01
  4.627059E-01
  4.655105E-01
  4.696296E-01
  4.690221E-01
  4.684282E-01
  4.650355E-01
  4.653033E-01
  4.651179E-01
  4.677664E-01
  4.672594E-01
  4.682468E-01
  4.677316E-01
  4.714155E-01
  4.737993E-01
  4.748090E-01
  4.702892E-01
  4.702480E-01
  4.657116E-01
  4.665815E-01
  4.627767E-01
  4.637800E-01
  4.600828E-01
  4.618024E-01
  4.594678E-01
  4.626744E-01
  4.614778E-01
  4.653197E-01
  4.641858E-01
  4.673327E-01
  4.645021E-01
  4.652712E-01
  4.605126E-01
  4.612216E-01
  4.589328E-01
  4.635910E-01
  4.645089E-01
  4.697501E-01
  4.685418E-01
  4.710194E-01
  4.685907E-01
  4.716128E-01
  4.697983E-01
  4.721208E-01
  4.690750E-01
  4.717071E-01
  4.709711E-01
  4.754719E-01
  4.731837E-01
  4.728035E-01
  4.659187E-01
  4.649287E-01
  4.616104E-01
  4.650092E-01
  4.637477E-01
  4.667408E-01
  4.649690E-01
  4.691245E-01
  4.690707E-01
  4.726573E-01
  4.684239E-01
  4.665361E-01
  4.596051E-01
  4.597179E-01
  4.578987E-01
  4.628070E-01
  4.632476E-01
  4.679680E-01
  4.670243E-01
  4.703929E-01
  4.687301E-01
  4.721490E-01
  4.709431E-01
  4.745032E-01
  4.726117E-01
  4.751506E-01
  4.728402E-01
  4.756632E-01
  4.733115E-01
  4.665416E-01
  4.651025E-01
  4.689855E-01
  4.654359E-01
  4.678659E-01
  4.640437E-01
  4.664797E-01
  4.622099E-01
  4.640600E-01
  4.599675E-01
  4.630610E-01
  4.608233E-01
  4.657232E-01
  4.647348E-01
  4.697302E-01
  4.667723E-01
  4.677181E-01
  4.605722E-01
  4.603404E-01
  4.568321E-01
  4.631530E-01
  4.646984E-01
  4.711646E-01
  4.684154E-01
  4.703614E-01
  4.666499E-01
  4.710552E-01
  4.697214E-01
  4.734172E-01
  4.688676E-01
  4.702381E-01
  4.666094E-01
  4.709024E-01
  4.689704E-01
  4.720363E-01
  4.671575E-01
  4.679416E-01
  4.627059E-01
  4.646378E-01
  4.613401E-01
  4.656718E-01
  4.649160E-01
  4.709865E-01
  4.698259E-01
  4.729821E-01
  4.675916E-01
  4.674721E-01
  4.614731E-01
  4.633206E-01