# vtk DataFile Version 2.0
title
ASCII
DATASET STRUCTURED_GRID
DIMENSIONS   64   64    1
POINTS   4096  float
  0.000000E+00  0.000000E+00  0.000000E+00
  0.000000E+00  3.906250E-01  0.000000E+00
  0.000000E+00  7.812500E-01  0.000000E+00
  0.000000E+00  1.171875E+00  0.000000E+00
  0.000000E+00  1.562500E+00  0.000000E+00
  0.000000E+00  1.953125E+00  0.000000E+00
  0.000000E+00  2.343750E+00  0.000000E+00
  0.000000E+00  2.734375E+00  0.000000E+00
  0.000000E+00  3.125000E+00  0.000000E+00
  0.000000E+00  3.515625E+00  0.000000E+00
  0.000000E+00  3.906250E+00  0.000000E+00
  0.000000E+00  4.296875E+00  0.000000E+00
  0.000000E+00  4.687500E+00  0.000000E+00
  0.000000E+00  5.078125E+00  0.000000E+00
  0.000000E+00  5.468750E+00  0.000000E+00
  0.000000E+00  5.859375E+00  0.000000E+00
  0.000000E+00  6.250000E+00  0.000000E+00
  0.000000E+00  6.640625E+00  0.000000E+00
  0.000000E+00  7.031250E+00  0.000000E+00
  0.000000E+00  7.421875E+00  0.000000E+00
  0.000000E+00  7.812500E+00  0.000000E+00
  0.000000E+00  8.203125E+00  0.000000E+00
  0.000000E+00  8.593750E+00  0.000000E+00
  0.000000E+00  8.984375E+00  0.000000E+00
  0.000000E+00  9.375000E+00  0.000000E+00
  0.000000E+00  9.765625E+00  0.000000E+00
  0.000000E+00  1.015625E+01  0.000000E+00
  0.000000E+00  1.054688E+01  0.000000E+00
  0.000000E+00  1.093750E+01  0.000000E+00
  0.000000E+00  1.132812E+01  0.000000E+00
  0.000000E+00  1.171875E+01  0.000000E+00
  0.000000E+00  1.210938E+01  0.000000E+00
  0.000000E+00  1.250000E+01  0.000000E+00
  0.000000E+00  1.289062E+01  0.000000E+00
  0.000000E+00  1.328125E+01  0.000000E+00
  0.000000E+00  1.367188E+01  0.000000E+00
  0.000000E+00  1.406250E+01  0.000000E+00
  0.000000E+00  1.445312E+01  0.000000E+00
  0.000000E+00  1.484375E+01  0.000000E+00
  0.000000E+00  1.523438E+01  0.000000E+00
  0.000000E+00  1.562500E+01  0.000000E+00
  0.000000E+00  1.601562E+01  0.000000E+00
  0.000000E+00  1.640625E+01  0.000000E+00
  0.000000E+00  1.679688E+01  0.000000E+00
  0.000000E+00  1.718750E+01  0.000000E+00
  0.000000E+00  1.757812E+01  0.000000E+00
  0.000000E+00  1.796875E+01  0.000000E+00
  0.000000E+00  1.835938E+01  0.000000E+00
  0.000000E+00  1.875000E+01  0.000000E+00
  0.000000E+00  1.914062E+01  0.000000E+00
  0.000000E+00  1.953125E+01  0.000000E+00
  0.000000E+00  1.992188E+01  0.000000E+00
  0.000000E+00  2.031250E+01  0.000000E+00
  0.000000E+00  2.070312E+01  0.000000E+00
  0.000000E+00  2.109375E+01  0.000000E+00
  0.000000E+00  2.148438E+01  0.000000E+00
  0.000000E+00  2.187500E+01  0.000000E+00
  0.000000E+00  2.226562E+01  0.000000E+00
  0.000000E+00  2.265625E+01  0.000000E+00
  0.000000E+00  2.304688E+01  0.000000E+00
  0.000000E+00  2.343750E+01  0.000000E+00
  0.000000E+00  2.382812E+01  0.000000E+00
  0.000000E+00  2.421875E+01  0.000000E+00
  0.000000E+00  2.460938E+01  0.000000E+00
  3.906250E-01  0.000000E+00  0.000000E+00
  3.906250E-01  3.906250E-01  0.000000E+00
  3.906250E-01  7.812500E-01  0.000000E+00
  3.906250E-01  1.171875E+00  0.000000E+00
  3.906250E-01  1.562500E+00  0.000000E+00
  3.906250E-01  1.953125E+00  0.000000E+00
  3.906250E-01  2.343750E+00  0.000000E+00
  3.906250E-01  2.734375E+00  0.000000E+00
  3.906250E-01  3.125000E+00  0.000000E+00
  3.906250E-01  3.515625E+00  0.000000E+00
  3.906250E-01  3.906250E+00  0.000000E+00
  3.906250E-01  4.296875E+00  0.000000E+00
  3.906250E-01  4.687500E+00  0.000000E+00
  3.906250E-01  5.078125E+00  0.000000E+00
  3.906250E-01  5.468750E+00  0.000000E+00
  3.906250E-01  5.859375E+00  0.000000E+00
  3.906250E-01  6.250000E+00  0.000000E+00
  3.906250E-01  6.640625E+00  0.000000E+00
  3.906250E-01  7.031250E+00  0.000000E+00
  3.906250E-01  7.421875E+00  0.000000E+00
  3.906250E-01  7.812500E+00  0.000000E+00
  3.906250E-01  8.203125E+00  0.000000E+00
  3.906250E-01  8.593750E+00  0.000000E+00
  3.906250E-01  8.984375E+00  0.000000E+00
  3.906250E-01  9.375000E+00  0.000000E+00
  3.906250E-01  9.765625E+00  0.000000E+00
  3.906250E-01  1.015625E+01  0.000000E+00
  3.906250E-01  1.054688E+01  0.000000E+00
  3.906250E-01  1.093750E+01  0.000000E+00
  3.906250E-01  1.132812E+01  0.000000E+00
  3.906250E-01  1.171875E+01  0.000000E+00
  3.906250E-01  1.210938E+01  0.000000E+00
  3.906250E-01  1.250000E+01  0.000000E+00
  3.906250E-01  1.289062E+01  0.000000E+00
  3.906250E-01  1.328125E+01  0.000000E+00
  3.906250E-01  1.367188E+01  0.000000E+00
  3.906250E-01  1.406250E+01  0.000000E+00
  3.906250E-01  1.445312E+01  0.000000E+00
  3.906250E-01  1.484375E+01  0.000000E+00
  3.906250E-01  1.523438E+01  0.000000E+00
  3.906250E-01  1.562500E+01  0.000000E+00
  3.906250E-01  1.601562E+01  0.000000E+00
  3.906250E-01  1.640625E+01  0.000000E+00
  3.906250E-01  1.679688E+01  0.000000E+00
  3.906250E-01  1.718750E+01  0.000000E+00
  3.906250E-01  1.757812E+01  0.000000E+00
  3.906250E-01  1.796875E+01  0.000000E+00
  3.906250E-01  1.835938E+01  0.000000E+00
  3.906250E-01  1.875000E+01  0.000000E+00
  3.906250E-01  1.914062E+01  0.000000E+00
  3.906250E-01  1.953125E+01  0.000000E+00
  3.906250E-01  1.992188E+01  0.000000E+00
  3.906250E-01  2.031250E+01  0.000000E+00
  3.906250E-01  2.070312E+01  0.000000E+00
  3.906250E-01  2.109375E+01  0.000000E+00
  3.906250E-01  2.148438E+01  0.000000E+00
  3.906250E-01  2.187500E+01  0.000000E+00
  3.906250E-01  2.226562E+01  0.000000E+00
  3.906250E-01  2.265625E+01  0.000000E+00
  3.906250E-01  2.304688E+01  0.000000E+00
  3.906250E-01  2.343750E+01  0.000000E+00
  3.906250E-01  2.382812E+01  0.000000E+00
  3.906250E-01  2.421875E+01  0.000000E+00
  3.906250E-01  2.460938E+01  0.000000E+00
  7.812500E-01  0.000000E+00  0.000000E+00
  7.812500E-01  3.906250E-01  0.000000E+00
  7.812500E-01  7.812500E-01  0.000000E+00
  7.812500E-01  1.171875E+00  0.000000E+00
  7.812500E-01  1.562500E+00  0.000000E+00
  7.812500E-01  1.953125E+00  0.000000E+00
  7.812500E-01  2.343750E+00  0.000000E+00
  7.812500E-01  2.734375E+00  0.000000E+00
  7.812500E-01  3.125000E+00  0.000000E+00
  7.812500E-01  3.515625E+00  0.000000E+00
  7.812500E-01  3.906250E+00  0.000000E+00
  7.812500E-01  4.296875E+00  0.000000E+00
  7.812500E-01  4.687500E+00  0.000000E+00
  7.812500E-01  5.078125E+00  0.000000E+00
  7.812500E-01  5.468750E+00  0.000000E+00
  7.812500E-01  5.859375E+00  0.000000E+00
  7.812500E-01  6.250000E+00  0.000000E+00
  7.812500E-01  6.640625E+00  0.000000E+00
  7.812500E-01  7.031250E+00  0.000000E+00
  7.812500E-01  7.421875E+00  0.000000E+00
  7.812500E-01  7.812500E+00  0.000000E+00
  7.812500E-01  8.203125E+00  0.000000E+00
  7.812500E-01  8.593750E+00  0.000000E+00
  7.812500E-01  8.984375E+00  0.000000E+00
  7.812500E-01  9.375000E+00  0.000000E+00
  7.812500E-01  9.765625E+00  0.000000E+00
  7.812500E-01  1.015625E+01  0.000000E+00
  7.812500E-01  1.054688E+01  0.000000E+00
  7.812500E-01  1.093750E+01  0.000000E+00
  7.812500E-01  1.132812E+01  0.000000E+00
  7.812500E-01  1.171875E+01  0.000000E+00
  7.812500E-01  1.210938E+01  0.000000E+00
  7.812500E-01  1.250000E+01  0.000000E+00
  7.812500E-01  1.289062E+01  0.000000E+00
  7.812500E-01  1.328125E+01  0.000000E+00
  7.812500E-01  1.367188E+01  0.000000E+00
  7.812500E-01  1.406250E+01  0.000000E+00
  7.812500E-01  1.445312E+01  0.000000E+00
  7.812500E-01  1.484375E+01  0.000000E+00
  7.812500E-01  1.523438E+01  0.000000E+00
  7.812500E-01  1.562500E+01  0.000000E+00
  7.812500E-01  1.601562E+01  0.000000E+00
  7.812500E-01  1.640625E+01  0.000000E+00
  7.812500E-01  1.679688E+01  0.000000E+00
  7.812500E-01  1.718750E+01  0.000000E+00
  7.812500E-01  1.757812E+01  0.000000E+00
  7.812500E-01  1.796875E+01  0.000000E+00
  7.812500E-01  1.835938E+01  0.000000E+00
  7.812500E-01  1.875000E+01  0.000000E+00
  7.812500E-01  1.914062E+01  0.000000E+00
  7.812500E-01  1.953125E+01  0.000000E+00
  7.812500E-01  1.992188E+01  0.000000E+00
  7.812500E-01  2.031250E+01  0.000000E+00
  7.812500E-01  2.070312E+01  0.000000E+00
  7.812500E-01  2.109375E+01  0.000000E+00
  7.812500E-01  2.148438E+01  0.000000E+00
  7.812500E-01  2.187500E+01  0.000000E+00
  7.812500E-01  2.226562E+01  0.000000E+00
  7.812500E-01  2.265625E+01  0.000000E+00
  7.812500E-01  2.304688E+01  0.000000E+00
  7.812500E-01  2.343750E+01  0.000000E+00
  7.812500E-01  2.382812E+01  0.000000E+00
  7.812500E-01  2.421875E+01  0.000000E+00
  7.812500E-01  2.460938E+01  0.000000E+00
  1.171875E+00  0.000000E+00  0.000000E+00
  1.171875E+00  3.906250E-01  0.000000E+00
  1.171875E+00  7.812500E-01  0.000000E+00
  1.171875E+00  1.171875E+00  0.000000E+00
  1.171875E+00  1.562500E+00  0.000000E+00
  1.171875E+00  1.953125E+00  0.000000E+00
  1.171875E+00  2.343750E+00  0.000000E+00
  1.171875E+00  2.734375E+00  0.000000E+00
  1.171875E+00  3.125000E+00  0.000000E+00
  1.171875E+00  3.515625E+00  0.000000E+00
  1.171875E+00  3.906250E+00  0.000000E+00
  1.171875E+00  4.296875E+00  0.000000E+00
  1.171875E+00  4.687500E+00  0.000000E+00
  1.171875E+00  5.078125E+00  0.000000E+00
  1.171875E+00  5.468750E+00  0.000000E+00
  1.171875E+00  5.859375E+00  0.000000E+00
  1.171875E+00  6.250000E+00  0.000000E+00
  1.171875E+00  6.640625E+00  0.000000E+00
  1.171875E+00  7.031250E+00  0.000000E+00
  1.171875E+00  7.421875E+00  0.000000E+00
  1.171875E+00  7.812500E+00  0.000000E+00
  1.171875E+00  8.203125E+00  0.000000E+00
  1.171875E+00  8.593750E+00  0.000000E+00
  1.171875E+00  8.984375E+00  0.000000E+00
  1.171875E+00  9.375000E+00  0.000000E+00
  1.171875E+00  9.765625E+00  0.000000E+00
  1.171875E+00  1.015625E+01  0.000000E+00
  1.171875E+00  1.054688E+01  0.000000E+00
  1.171875E+00  1.093750E+01  0.000000E+00
  1.171875E+00  1.132812E+01  0.000000E+00
  1.171875E+00  1.171875E+01  0.000000E+00
  1.171875E+00  1.210938E+01  0.000000E+00
  1.171875E+00  1.250000E+01  0.000000E+00
  1.171875E+00  1.289062E+01  0.000000E+00
  1.171875E+00  1.328125E+01  0.000000E+00
  1.171875E+00  1.367188E+01  0.000000E+00
  1.171875E+00  1.406250E+01  0.000000E+00
  1.171875E+00  1.445312E+01  0.000000E+00
[...]
POINT_DATA   4096
SCALARS CON  float  1
LOOKUP_TABLE default
  4.708846E-01
  4.699605E-01
  4.755140E-01
  4.734721E-01
  4.738200E-01
  4.673406E-01
  4.687239E-01
  4.678124E-01
  4.735516E-01
  4.716076E-01
  4.725402E-01
  4.668974E-01
  4.679387E-01
  4.648410E-01
  4.682754E-01
  4.667920E-01
  4.716786E-01
  4.709687E-01
  4.744563E-01
  4.700319E-01
  4.698744E-01
  4.644166E-01
  4.657635E-01
  4.622110E-01
  4.640983E-01
  4.602488E-01
  4.631243E-01
  4.628734E-01
  4.702746E-01
  4.713637E-01
  4.745085E-01
  4.684782E-01
  4.679693E-01
  4.650122E-01
  4.706101E-01
  4.702282E-01
  4.723980E-01
  4.663345E-01
  4.659553E-01
  4.618664E-01
  4.649078E-01
  4.624296E-01
  4.648798E-01
  4.613023E-01
  4.634720E-01
  4.607863E-01
  4.653504E-01
  4.666605E-01
  4.748492E-01
  4.753798E-01
  4.766733E-01
  4.680557E-01
  4.648832E-01
  4.600453E-01
  4.661487E-01
  4.703408E-01
  4.801242E-01
  4.804975E-01
  4.817624E-01
  4.747972E-01
  4.741296E-01
  4.696895E-01
  4.717215E-01
  4.680803E-01
  4.707374E-01
  4.713417E-01
  4.789025E-01
  4.792780E-01
  4.788581E-01
  4.697335E-01
  4.669213E-01
  4.640237E-01
  4.692068E-01
  4.691453E-01
  4.718707E-01
  4.688742E-01
  4.711060E-01
  4.683074E-01
  4.692535E-01
  4.652797E-01
  4.682723E-01
  4.690634E-01
  4.748543E-01
  4.727987E-01
  4.720554E-01
  4.653646E-01
  4.652906E-01
  4.629950E-01
  4.666929E-01
  4.649461E-01
  4.671128E-01
  4.648292E-01
  4.688875E-01
  4.689923E-01
  4.728350E-01
  4.695702E-01
  4.699306E-01
  4.661503E-01
  4.684658E-01
  4.661142E-01
  4.677962E-01
  4.643788E-01
  4.666507E-01
  4.647705E-01
  4.668495E-01
  4.623425E-01
  4.619516E-01
  4.578005E-01
  4.600542E-01
  4.586670E-01
  4.635108E-01
  4.659785E-01
  4.749966E-01
  4.771151E-01
  4.783022E-01
  4.695218E-01
  4.658017E-01
  4.626524E-01
  4.705712E-01
  4.763215E-01
  4.843925E-01
  4.818749E-01
  4.795424E-01
  4.715986E-01
  4.711654E-01
  4.686527E-01
  4.713723E-01
  4.683000E-01
  4.637074E-01
  4.704821E-01
  4.793310E-01
  4.814792E-01
  4.788513E-01
  4.706799E-01
  4.663171E-01
  4.645792E-01
  4.680089E-01
  4.696876E-01
  4.719239E-01
  4.711156E-01
  4.718818E-01
  4.702343E-01
  4.699877E-01
  4.680005E-01
  4.693457E-01
  4.701758E-01
  4.729946E-01
  4.722220E-01
  4.715001E-01
  4.680410E-01
  4.671288E-01
  4.653474E-01
  4.661830E-01
  4.650124E-01
  4.655193E-01
  4.642442E-01
  4.655495E-01
  4.650963E-01
  4.657878E-01
  4.635427E-01
  4.637355E-01
  4.640987E-01
  4.682065E-01
  4.696936E-01
  4.704090E-01
  4.669524E-01
  4.655759E-01
  4.636760E-01
  4.642050E-01
  4.616284E-01
  4.597943E-01
  4.564120E-01
  4.569626E-01
  4.580059E-01
  4.631711E-01
  4.680694E-01
  4.751377E-01
  4.775705E-01
  4.770309E-01
  4.705983E-01
  4.663524E-01
  4.642983E-01
  4.693092E-01
  4.752313E-01
  4.820146E-01
  4.822503E-01
  4.791138E-01
  4.709035E-01
  4.649341E-01
  4.593401E-01
  4.583744E-01
  4.582826E-01
  4.629951E-01
  4.711727E-01
  4.779000E-01
  4.821820E-01
  4.768918E-01
  4.692851E-01
  4.611928E-01
  4.605638E-01
  4.623254E-01
  4.675433E-01
  4.698923E-01
  4.733454E-01
  4.735326E-01
  4.739172E-01
  4.700982E-01
  4.681580E-01
  4.664027E-01
  4.697433E-01
  4.718752E-01
  4.742764E-01
  4.718358E-01
  4.703493E-01
  4.676540E-01
  4.688068E-01
  4.687263E-01
  4.701101E-01
  4.677255E-01
  4.662701E-01
  4.631587E-01
  4.640944E-01
  4.647300E-01
  4.676876E-01
  4.672402E-01
  4.675439E-01
  4.652376E-01
  4.653058E-01
  4.638999E-01
  4.656811E-01
  4.664349E-01
  4.690782E-01
  4.673181E-01
  4.650183E-01
  4.602970E-01
  4.602734E-01
  4.611290E-01
  4.650040E-01
  4.660334E-01
  4.690638E-01
  4.707348E-01
  4.739589E-01
  4.720126E-01
  4.691647E-01
  4.646548E-01
  4.664362E-01
  4.706385E-01
  4.782017E-01
  4.805815E-01
  4.799160E-01
  4.731014E-01
  4.675789E-01
  4.617398E-01
  4.603985E-01
  4.585702E-01
  4.603981E-01
  4.603209E-01
  4.709472E-01
  4.746144E-01
  4.786899E-01
  4.709577E-01
  4.665703E-01
  4.586518E-01
  4.606425E-01
  4.603031E-01
  4.670251E-01
  4.678070E-01
  4.731197E-01
  4.708818E-01
  4.726174E-01
  4.677990E-01
  4.693688E-01
  4.667315E-01
  4.709629E-01
  4.695115E-01
  4.730783E-01
  4.701196E-01
  4.723200E-01
  4.681655E-01
  4.692339E-01
  4.646292E-01
  4.663218E-01
  4.627011E-01
  4.646904E-01
  4.610006E-01
  4.638258E-01
  4.620499E-01
  4.662826E-01
  4.641535E-01
  4.672272E-01
  4.647674E-01
  4.682633E-01
  4.656609E-01
  4.683006E-01
  4.653240E-01
  4.682117E-01
  4.645278E-01
  4.652957E-01
  4.605766E-01
  4.640190E-01
  4.645304E-01
  4.711428E-01
  4.697603E-01
  4.717620E-01
  4.674835E-01
  4.694683E-01
  4.656545E-01
  4.668920E-01
  4.625708E-01
  4.656316E-01
  4.652334E-01
  4.718477E-01
  4.721727E-01
  4.760413E-01
  4.712472E-01
  4.698480E-01
  4.617379E-01
  4.599100E-01
  4.544483E-01
  4.581373E-01
  4.652341E-01
  4.718639E-01
  4.720902E-01
  4.758141E-01
  4.681762E-01
  4.647275E-01
  4.560900E-01
  4.578514E-01
  4.566036E-01
  4.638512E-01
  4.647799E-01
  4.714200E-01
  4.693829E-01
  4.715323E-01
  4.655683E-01
  4.670722E-01
  4.646002E-01
  4.711228E-01
  4.711726E-01
  4.759743E-01
  4.717326E-01
  4.727305E-01
  4.666889E-01
  4.676172E-01
  4.627675E-01
  4.655712E-01
  4.622017E-01
  4.651497E-01
  4.616058E-01
  4.663684E-01
  4.667094E-01
  4.737587E-01
  4.710681E-01
  4.712423E-01
  4.634648E-01
  4.641989E-01
  4.614754E-01
  4.677069E-01
  4.677166E-01
  4.725744E-01
  4.675847E-01
  4.672494E-01
  4.619874E-01
  4.680101E-01
  4.707861E-01
  4.785934E-01
  4.742756E-01
  4.725253E-01
  4.643673E-01
  4.655928E-01
  4.619272E-01
  4.647874E-01
  4.609972E-01
  4.651504E-01
  4.642716E-01
  4.700742E-01
  4.676103E-01
  4.701202E-01
  4.656368E-01
  4.686286E-01
  4.657013E-01
  4.691168E-01
  4.650183E-01
  4.675590E-01
  4.647003E-01
  4.697869E-01
  4.693933E-01
  4.717221E-01
  4.664523E-01
  4.655188E-01
  4.604757E-01
  4.621269E-01
  4.602874E-01
  4.648362E-01
  4.648915E-01
  4.692485E-01
  4.666441E-01
  4.677712E-01
  4.642579E-01
  4.678341E-01
  4.682185E-01
  4.740442E-01
  4.734907E-01
  4.763018E-01
  4.726057E-01
  4.728665E-01
  4.665935E-01
  4.643992E-01
  4.578761E-01
  4.590835E-01
  4.580394E-01
  4.631961E-01
  4.630067E-01
  4.678332E-01
  4.680228E-01
  4.728233E-01
  4.703717E-01
  4.710351E-01
  4.667382E-01
  4.693684E-01
  4.682429E-01
  4.719434E-01
  4.693246E-01
  4.705498E-01
  4.656505E-01
  4.657345E-01
  4.625961E-01
  4.681232E-01
  4.712562E-01
  4.783301E-01
  4.755112E-01
  4.734514E-01
  4.656074E-01
  4.652898E-01
  4.623743E-01
  4.651632E-01
  4.622291E-01
  4.639644E-01
  4.609716E-01
  4.637435E-01
  4.620869E-01
  4.661455E-01
  4.655997E-01
  4.700053E-01
  4.681721E-01
  4.697454E-01
  4.651879E-01
  4.664323E-01
  4.668522E-01
  4.674159E-01
  4.674891E-01
  4.702876E-01
  4.690397E-01
  4.685546E-01
  4.650296E-01
  4.647616E-01
  4.634072E-01
  4.658746E-01
  4.665749E-01
  4.694008E-01
  4.683010E-01
  4.682124E-01
  4.655116E-01
  4.671463E-01
  4.690482E-01
  4.749921E-01
  4.773122E-01
  4.789927E-01
  4.750015E-01
  4.718454E-01
  4.659860E-01
  4.634228E-01
  4.601009E-01
  4.615841E-01
  4.623265E-01
  4.657520E-01
  4.662480E-01
  4.699085E-01
  4.726083E-01
  4.776303E-01
  4.768531E-01
  4.746134E-01
  4.688647E-01
  4.681718E-01
  4.683361E-01
  4.723828E-01
  4.728599E-01
  4.734318E-01
  4.691996E-01
  4.669034E-01
  4.643689E-01
  4.682668E-01
  4.719852E-01
  4.763473E-01
  4.736227E-01
  4.704511E-01
  4.657276E-01
  4.663395E-01
  4.658440E-01
  4.670419E-01
  4.648752E-01
  4.658771E-01
  4.656227E-01
  4.676672E-01
  4.655313E-01
  4.648140E-01
  4.628542E-01
  4.661598E-01
  4.687900E-01
  4.730440E-01
  4.718832E-01
  4.707065E-01
  4.617978E-01
  4.631313E-01
  4.650521E-01
  4.680969E-01
  4.698825E-01
  4.717169E-01
  4.717769E-01
  4.716893E-01
  4.704534E-01
  4.705710E-01
  4.704971E-01
  4.708406E-01
  4.691631E-01
  4.677673E-01
  4.667820E-01
  4.689240E-01
  4.719674E-01
  4.756892E-01
  4.767640E-01
  4.763289E-01
  4.734224E-01
  4.705481E-01
  4.665047E-01
  4.634081E-01
  4.608877E-01
  4.617881E-01
  4.641497E-01
  4.675254E-01
  4.686336E-01
  4.695049E-01
  4.699122E-01
  4.716119E-01
  4.718863E-01
  4.721500E-01
  4.720845E-01
  4.741013E-01
  4.752796E-01
  4.752141E-01
  4.719369E-01
  4.686890E-01
  4.656074E-01
  4.649445E-01
  4.649186E-01
  4.667532E-01
  4.680815E-01
  4.693548E-01
  4.683548E-01
  4.676077E-01
  4.670865E-01
  4.687998E-01
  4.697583E-01
  4.700604E-01
  4.682593E-01
  4.675554E-01
  4.673556E-01
  4.685930E-01
  4.682516E-01
  4.676000E-01
  4.660487E-01
  4.662301E-01
  4.662593E-01
  4.665132E-01
  4.646721E-01
  4.631262E-01
  4.621034E-01
  4.615419E-01
  4.638392E-01
  4.680109E-01
  4.713403E-01
  4.729108E-01
  4.725138E-01
  4.716706E-01
  4.709737E-01
  4.713268E-01
  4.720500E-01
  4.726787E-01
  4.718350E-01
  4.698639E-01
  4.675065E-01
  4.669600E-01
  4.687981E-01
  4.725878E-01
  4.754536E-01
  4.756174E-01
  4.725029E-01
  4.684360E-01
  4.652088E-01
  4.644281E-01
  4.657477E-01
  4.688577E-01
  4.717288E-01
  4.729062E-01
  4.715343E-01
  4.699072E-01
  4.698001E-01
  4.715294E-01
  4.724810E-01
  4.717914E-01
  4.702686E-01
  4.702458E-01
  4.712758E-01
  4.719982E-01
  4.706985E-01
  4.683125E-01
  4.659022E-01
  4.650950E-01
  4.657378E-01
  4.673971E-01
  4.680225E-01
  4.669977E-01
  4.648142E-01
  4.643215E-01
  4.665463E-01
  4.704820E-01
  4.725327E-01
  4.716524E-01
  4.694161E-01
  4.695206E-01
  4.722833E-01
  4.753265E-01
  4.748058E-01
  4.708534E-01
  4.661613E-01
  4.644376E-01
  4.656353E-01
  4.677095E-01
  4.675242E-01
  4.650986E-01
  4.590135E-01
  4.606075E-01
  4.630134E-01
  4.667945E-01
  4.695367E-01
  4.721682E-01
  4.726894E-01
  4.727235E-01
  4.715768E-01
  4.718552E-01
  4.720300E-01
  4.724584E-01
  4.705527E-01
  4.683982E-01
  4.661467E-01
  4.666344E-01
  4.681847E-01
  4.711068E-01
  4.723663E-01
  4.725769E-01
  4.702065E-01
  4.677018E-01
  4.646968E-01
  4.638505E-01
  4.644749E-01
  4.681584E-01
  4.718289E-01
  4.744163E-01
  4.727362E-01
  4.693779E-01
  4.654357E-01
  4.642639E-01
  4.643226E-01
  4.665160E-01
  4.689152E-01
  4.722729E-01
  4.731766E-01
  4.715625E-01
  4.664949E-01
  4.623772E-01
  4.603649E-01
  4.623712E-01
  4.648922E-01
  4.670228E-01
  4.661971E-01
  4.649652E-01
  4.638101E-01
  4.657276E-01
  4.688400E-01
  4.726210E-01
  4.731913E-01
  4.716182E-01
  4.683119E-01
  4.675755E-01
  4.689318E-01
  4.724347E-01
  4.739419E-01
  4.737276E-01
  4.710581E-01
  4.690406E-01
  4.666821E-01
  4.650127E-01
  4.621178E-01
  4.602293E-01
  4.623696E-01
  4.626770E-01
  4.637061E-01
  4.678556E-01
  4.694622E-01
  4.709831E-01
  4.689247E-01
  4.682136E-01
  4.664743E-01
  4.680347E-01
  4.687824E-01
  4.710761E-01
  4.698500E-01
  4.685495E-01
  4.647666E-01
  4.642421E-01
  4.646908E-01
  4.693667E-01
  4.723247E-01
  4.746238E-01
  4.715459E-01
  4.682360E-01
  4.637017E-01
  4.637218E-01
  4.651076E-01
  4.704217E-01
  4.737052E-01
  4.762501E-01
  4.735364E-01
  4.709505E-01
  4.673975E-01
  4.675728E-01
  4.666682E-01
  4.670978E-01
  4.654506E-01
  4.664662E-01
  4.664316E-01
  4.677156E-01
  4.656506E-01
  4.645219E-01
  4.622489E-01
  4.636788E-01
  4.649346E-01
  4.681990E-01
  4.681364E-01
  4.681682E-01
  4.661716E-01
  4.678074E-01
  4.695649E-01
  4.728999E-01
  4.715028E-01
  4.689968E-01
  4.646075E-01
  4.652420E-01
  4.676684E-01
  4.728735E-01
  4.739752E-01
  4.739424E-01
  4.709732E-01
  4.708811E-01
  4.701459E-01
  4.709541E-01
  4.682616E-01
  4.660475E-01
  4.608991E-01
  4.637240E-01
  4.641827E-01
  4.676071E-01
  4.679297E-01
  4.705098E-01
  4.688113E-01
  4.687418E-01
  4.656506E-01
  4.667735E-01
  4.662864E-01
  4.685403E-01
  4.663698E-01
  4.660673E-01
  4.634754E-01
  4.655887E-01
  4.663218E-01
  4.705028E-01
  4.713365E-01
  4.739307E-01
  4.717567E-01
  4.705583E-01
  4.653069E-01
  4.635636E-01
  4.612482E-01
  4.648733E-01
  4.674875E-01
  4.724160E-01
  4.716176E-01
  4.708665E-01
  4.661333E-01
  4.652740E-01
  4.632168E-01
  4.655405E-01
  4.658548E-01
  4.692091E-01
  4.685282E-01
  4.687247E-01
  4.644061E-01
  4.632630E-01
  4.611486E-01
  4.639949E-01
  4.646055E-01
  4.674061E-01
  4.663121E-01
  4.680354E-01
  4.675896E-01
  4.707429E-01
  4.705587E-01
  4.716507E-01
  4.677821E-01
  4.658123E-01
  4.616489E-01
  4.624679E-01
  4.626401E-01
  4.671873E-01
  4.691440E-01
  4.734560E-01
  4.735605E-01
  4.747352E-01
  4.708580E-01
  4.684577E-01
  4.632032E-01
  4.624608E-01
  4.650819E-01
  4.660434E-01
  4.655396E-01
  4.684422E-01
  4.687378E-01
  4.702387E-01
  4.675075E-01
  4.664020E-01
  4.633311E-01
  4.642863E-01
  4.640931E-01
  4.666393E-01
  4.657727E-01
  4.663443E-01
  4.642081E-01
  4.655106E-01
  4.658247E-01
  4.699366E-01
  4.718597E-01
  4.752099E-01
  4.737102E-01
  4.722767E-01
  4.670989E-01
  4.650645E-01
  4.625164E-01
  4.647200E-01
  4.658327E-01
  4.693906E-01
  4.692098E-01
  4.703961E-01
  4.689061E-01
  4.702927E-01
  4.688627E-01
  4.688033E-01
  4.654237E-01
  4.650989E-01
  4.637694E-01
  4.661922E-01
  4.663621E-01
  4.684478E-01
  4.671304E-01
  4.677653E-01
  4.660817E-01
  4.676552E-01
  4.672702E-01
  4.692514E-01
  4.681678E-01
  4.692033E-01
  4.674115E-01
  4.674112E-01
  4.639369E-01
  4.628947E-01
  4.609407E-01
  4.639413E-01
  4.659391E-01
  4.699876E-01
  4.698948E-01
  4.710914E-01
  4.695520E-01
  4.706910E-01
  4.691250E-01
  4.695910E-01
  4.671918E-01
  4.672663E-01
  4.658398E-01
  4.673227E-01
  4.667344E-01
  4.668093E-01
  4.673814E-01
  4.692572E-01
  4.696066E-01
  4.689488E-01
  4.667811E-01
  4.657678E-01
  4.649729E-01
  4.649685E-01
  4.640674E-01
  4.643962E-01
  4.656206E-01
  4.685585E-01
  4.702490E-01
  4.711422E-01
  4.708865E-01
  4.720762E-01
  4.730630E-01
  4.733150E-01
  4.701950E-01
  4.657232E-01
  4.608972E-01
  4.592050E-01
  4.600086E-01
  4.633510E-01
  4.656662E-01
  4.667198E-01
  4.655526E-01
  4.650705E-01
  4.651553E-01
  4.669677E-01
  4.681964E-01
  4.691848E-01
  4.683074E-01
  4.673495E-01
  4.660162E-01
  4.663484E-01
  4.667819E-01
  4.675950E-01
  4.668518E-01
  4.663520E-01
  4.658023E-01
  4.667820E-01
  4.671701E-01
  4.672026E-01
  4.653042E-01
  4.635541E-01
  4.619176E-01
  4.626032E-01
  4.641767E-01
  4.667574E-01
  4.677633E-01
  4.682410E-01
  4.677300E-01
  4.682132E-01
  4.678686E-01
  4.669129E-01
  4.639931E-01
  4.619879E-01
  4.614021E-01
  4.636913E-01
  4.736766E-01
  4.712298E-01
  4.690769E-01
  4.667013E-01
  4.674577E-01
  4.674332E-01
  4.682768E-01
  4.670118E-01
  4.669648E-01
  4.656816E-01
  4.658886E-01
  4.646490E-01
  4.650675E-01
  4.649720E-01
  4.674270E-01
  4.689600E-01
  4.712661E-01
  4.711525E-01
  4.721785E-01
  4.722493E-01
  4.737236E-01
  4.725061E-01
  4.707425E-01
  4.662706E-01
  4.633673E-01
  4.605533E-01
  4.611592E-01
  4.618380E-01
  4.641216E-01
  4.643734E-01
  4.657792E-01
  4.663757E-01
  4.688502E-01
  4.691657E-01
  4.691731E-01
  4.665262E-01
  4.655839E-01
  4.648212E-01
  4.670824E-01
  4.683292E-01
  4.698424E-01
  4.683967E-01
  4.679887E-01
  4.672592E-01
  4.689303E-01
  4.685346E-01
  4.676182E-01
  4.639904E-01
  4.622376E-01
  4.607486E-01
  4.623988E-01
  4.641082E-01
  4.683585E-01
  4.713324E-01
  4.739949E-01
  4.721255E-01
  4.690088E-01
  4.637864E-01
  4.610859E-01
  4.589228E-01
  4.603730E-01
  4.627567E-01
  4.681313E-01
  4.715894E-01
  4.762699E-01
  4.742176E-01
  4.706327E-01
  4.657513E-01
  4.652712E-01
  4.656346E-01
  4.683153E-01
  4.685459E-01
  4.694188E-01
  4.679357E-01
  4.673912E-01
  4.644437E-01
  4.633957E-01
  4.628116E-01
  4.668610E-01
  4.705490E-01
  4.740470E-01
  4.725684E-01
  4.711730E-01
  4.693374E-01
  4.710834E-01
  4.711316E-01
  4.704763E-01
  4.654926E-01
  4.614597E-01
  4.576607E-01
  4.586994E-01
  4.603609E-01
  4.634318E-01
  4.627380E-01
  4.622539E-01
  4.612299E-01
  4.646675E-01
  4.682888E-01
  4.726541E-01
  4.723653E-01
  4.708849E-01
  4.667529E-01
  4.652602E-01
  4.638825E-01
  4.653646E-01
  4.654492E-01
  4.671429E-01
  4.674098E-01
  4.693847E-01
  4.686915E-01
  4.677627E-01
  4.638414E-01
  4.620523E-01
  4.607561E-01
  4.636882E-01
  4.667071E-01
  4.714111E-01
  4.725416E-01
  4.722832E-01
  4.679214E-01
  4.647662E-01
  4.610860E-01
  4.601992E-01
  4.581832E-01
  4.587664E-01
  4.602060E-01
  4.663805E-01
  4.718699E-01
  4.810737E-01
  4.768117E-01
  4.717046E-01
  4.669373E-01
  4.654137E-01
  4.644063E-01
  4.649207E-01
  4.648628E-01
  4.660983E-01
  4.661793E-01
  4.662977E-01
  4.644762E-01
  4.635676E-01
  4.630054E-01
  4.652735E-01
  4.675878E-01
  4.701212E-01
  4.699339E-01
  4.695422E-01
  4.683715E-01
  4.689024E-01
  4.685884E-01
  4.683751E-01
  4.660665E-01
  4.643050E-01
  4.624350E-01
  4.631590E-01
  4.640650E-01
  4.655566E-01
  4.649425E-01
  4.652622E-01
  4.664013E-01
  4.702823E-01
  4.727044E-01
  4.732296E-01
  4.699591E-01
  4.670824E-01
  4.648684E-01
  4.655283E-01
  4.658065E-01
  4.663424E-01
  4.655451E-01
  4.668660E-01
  4.690280E-01
  4.721436E-01
  4.714180E-01
  4.680000E-01
  4.624775E-01
  4.601634E-01
  4.604575E-01
  4.640729E-01
  4.672767E-01
  4.708596E-01
  4.721758E-01
  4.722921E-01
  4.689603E-01
  4.651425E-01
  4.608050E-01
  4.592296E-01
  4.590113E-01
  4.623250E-01
  4.673624E-01
  4.748005E-01
  4.797082E-01
  4.763642E-01
  4.741055E-01
  4.706996E-01
  4.660257E-01
  4.646430E-01
  4.638077E-01
  4.650359E-01
  4.647310E-01
  4.655350E-01
  4.649057E-01
  4.652048E-01
  4.633037E-01
  4.624386E-01
  4.614579E-01
  4.640237E-01
  4.663095E-01
  4.684726E-01
  4.664495E-01
  4.643794E-01
  4.623600E-01
  4.644113E-01
  4.665006E-01
  4.687288E-01
  4.669851E-01
  4.650149E-01
  4.625854E-01
  4.640374E-01
  4.658744E-01
  4.682416E-01
  4.668188E-01
  4.656283E-01
  4.648817E-01
  4.685181E-01
  4.719299E-01
  4.747393E-01
  4.728622E-01
  4.701515E-01
  4.659284E-01
  4.641688E-01
  4.623974E-01
  4.631090E-01
  4.635270E-01
  4.663119E-01
  4.681929E-01
  4.704790E-01
  4.690136E-01
  4.664761E-01
  4.619246E-01
  4.603191E-01
  4.600800E-01
  4.633680E-01
  4.659981E-01
  4.690347E-01
  4.686458E-01
  4.675908E-01
  4.646577E-01
  4.645264E-01
  4.651107E-01
  4.677066E-01
  4.677918E-01
  4.680713E-01
  4.677161E-01
  4.708742E-01
  4.737845E-01
  4.739966E-01
  4.699227E-01
  4.696986E-01
  4.661309E-01
  4.670431E-01
  4.637745E-01
  4.641673E-01
  4.607539E-01
  4.620881E-01
  4.603305E-01
  4.631780E-01
  4.622761E-01
  4.652821E-01
  4.640176E-01
  4.663384E-01
  4.640447E-01
  4.649404E-01
  4.612266E-01
  4.617566E-01
  4.597156E-01
  4.636026E-01
  4.647949E-01
  4.696941E-01
  4.689628E-01
  4.706986E-01
  4.682280E-01
  4.707159E-01
  4.697803E-01
  4.720748E-01
  4.692332E-01
  4.708083E-01
  4.702545E-01
  4.746497E-01
  4.731653E-01
  4.723248E-01
  4.657399E-01
  4.645429E-01
  4.622419E-01
  4.657295E-01
  4.649731E-01
  4.670864E-01
  4.650208E-01
  4.681996E-01
  4.685523E-01
  4.720339E-01
  4.684918E-01
  4.662321E-01
  4.599323E-01
  4.601115E-01
  4.591152E-01
  4.633983E-01
  4.635892E-01
  4.673069E-01
  4.666669E-01
  4.696375E-01
  4.683055E-01
  4.712140E-01
  4.707355E-01
  4.743947E-01
  4.731873E-01
  4.750065E-01
  4.726555E-01
  4.748127E-01
  4.729184E-01
  4.664293E-01
  4.649451E-01
  4.686479E-01
  4.653569E-01
  4.680293E-01
  4.647516E-01
  4.672625E-01
  4.628683E-01
  4.641548E-01
  4.600091E-01
  4.632959E-01
  4.616200E-01
  4.664902E-01
  4.652641E-01
  4.697303E-01
  4.667808E-01
  4.677775E-01
  4.609174E-01
  4.605711E-01
  4.571014E-01
  4.633419E-01
  4.652077E-01
  4.717468E-01
  4.690086E-01
  4.703706E-01
  4.662568E-01
  4.703887E-01
  4.694248E-01
  4.732216E-01
  4.686481E-01
  4.696551E-01
  4.662247E-01
  4.706708E-01
  4.687708E-01
  4.711963E-01
  4.661349E-01
  4.672418E-01
  4.630038E-01
  4.654005E-01
  4.621668E-01
  4.659389E-01
  4.647747E-01
  4.702208E-01
  4.687516E-01
  4.716040E-01
  4.665661E-01
  4.669469E-01
  4.617949E-01
  4.639508E-01