# vtk DataFile Version 2.0
title
ASCII
DATASET STRUCTURED_GRID
DIMENSIONS   64   64    1
POINTS   4096  float
  0.000000E+00  0.000000E+00  0.000000E+00
  0.000000E+00  3.906250E-01  0.000000E+00
  0.000000E+00  7.812500E-01  0.000000E+00
  0.000000E+00  1.171875E+00  0.000000E+00
  0.000000E+00  1.562500E+00  0.000000E+00
  0.000000E+00  1.953125E+00  0.000000E+00
  0.000000E+00  2.343750E+00  0.000000E+00
  0.000000E+00  2.734375E+00  0.000000E+00
  0.000000E+00  3.125000E+00  0.000000E+00
  0.000000E+00  3.515625E+00  0.000000E+00
  0.000000E+00  3.906250E+00  0.000000E+00
  0.000000E+00  4.296875E+00  0.000000E+00
  0.000000E+00  4.687500E+00  0.000000E+00
  0.000000E+00  5.078125E+00  0.000000E+00
  0.000000E+00  5.468750E+00  0.000000E+00
  0.000000E+00  5.859375E+00  0.000000E+00
  0.000000E+00  6.250000E+00  0.000000E+00
  0.000000E+00  6.640625E+00  0.000000E+00
  0.000000E+00  7.031250E+00  0.000000E+00
  0.000000E+00  7.421875E+00  0.000000E+00
  0.000000E+00  7.812500E+00  0.000000E+00
  0.000000E+00  8.203125E+00  0.000000E+00
  0.000000E+00  8.593750E+00  0.000000E+00
  0.000000E+00  8.984375E+00  0.000000E+00
  0.000000E+00  9.375000E+00  0.000000E+00
  0.000000E+00  9.765625E+00  0.000000E+00
  0.000000E+00  1.015625E+01  0.000000E+00
  0.000000E+00  1.054688E+01  0.000000E+00
  0.000000E+00  1.093750E+01  0.000000E+00
  0.000000E+00  1.132812E+01  0.000000E+00
  0.000000E+00  1.171875E+01  0.000000E+00
  0.000000E+00  1.210938E+01  0.000000E+00
  0.000000E+00  1.250000E+01  0.000000E+00
  0.000000E+00  1.289062E+01  0.000000E+00
  0.000000E+00  1.328125E+01  0.000000E+00
  0.000000E+00  1.367188E+01  0.000000E+00
  0.000000E+00  1.406250E+01  0.000000E+00
  0.000000E+00  1.445312E+01  0.000000E+00
  0.000000E+00  1.484375E+01  0.000000E+00
  0.000000E+00  1.523438E+01  0.000000E+00
  0.000000E+00  1.562500E+01  0.000000E+00
  0.000000E+00  1.601562E+01  0.000000E+00
  0.000000E+00  1.640625E+01  0.000000E+00
  0.000000E+00  1.679688E+01  0.000000E+00
  0.000000E+00  1.718750E+01  0.000000E+00
  0.000000E+00  1.757812E+01  0.000000E+00
  0.000000E+00  1.796875E+01  0.000000E+00
  0.000000E+00  1.835938E+01  0.000000E+00
  0.000000E+00  1.875000E+01  0.000000E+00
  0.000000E+00  1.914062E+01  0.000000E+00
  0.000000E+00  1.953125E+01  0.000000E+00
  0.000000E+00  1.992188E+01  0.000000E+00
  0.000000E+00  2.031250E+01  0.000000E+00
  0.000000E+00  2.070312E+01  0.000000E+00
  0.000000E+00  2.109375E+01  0.000000E+00
  0.000000E+00  2.148438E+01  0.000000E+00
  0.000000E+00  2.187500E+01  0.000000E+00
  0.000000E+00  2.226562E+01  0.000000E+00
  0.000000E+00  2.265625E+01  0.000000E+00
  0.000000E+00  2.304688E+01  0.000000E+00
  0.000000E+00  2.343750E+01  0.000000E+00
  0.000000E+00  2.382812E+01  0.000000E+00
  0.000000E+00  2.421875E+01  0.000000E+00
  0.000000E+00  2.460938E+01  0.000000E+00
  3.906250E-01  0.000000E+00  0.000000E+00
  3.906250E-01  3.906250E-01  0.000000E+00
  3.906250E-01  7.812500E-01  0.000000E+00
  3.906250E-01  1.171875E+00  0.000000E+00
  3.906250E-01  1.562500E+00  0.000000E+00
  3.906250E-01  1.953125E+00  0.000000E+00
  3.906250E-01  2.343750E+00  0.000000E+00
  3.906250E-01  2.734375E+00  0.000000E+00
  3.906250E-01  3.125000E+00  0.000000E+00
  3.906250E-01  3.515625E+00  0.000000E+00
  3.906250E-01  3.906250E+00  0.000000E+00
  3.906250E-01  4.296875E+00  0.000000E+00
  3.906250E-01  4.687500E+00  0.000000E+00
  3.906250E-01  5.078125E+00  0.000000E+00
  3.906250E-01  5.468750E+00  0.000000E+00
  3.906250E-01  5.859375E+00  0.000000E+00
  3.906250E-01  6.250000E+00  0.000000E+00
  3.906250E-01  6.640625E+00  0.000000E+00
  3.906250E-01  7.031250E+00  0.000000E+00
  3.906250E-01  7.421875E+00  0.000000E+00
  3.906250E-01  7.812500E+00  0.000000E+00
  3.906250E-01  8.203125E+00  0.000000E+00
  3.906250E-01  8.593750E+00  0.000000E+00
  3.906250E-01  8.984375E+00  0.000000E+00
  3.906250E-01  9.375000E+00  0.000000E+00
  3.906250E-01  9.765625E+00  0.000000E+00
  3.906250E-01  1.015625E+01  0.000000E+00
  3.906250E-01  1.054688E+01  0.000000E+00
  3.906250E-01  1.093750E+01  0.000000E+00
  3.906250E-01  1.132812E+01  0.000000E+00
  3.906250E-01  1.171875E+01  0.000000E+00
  3.906250E-01  1.210938E+01  0.000000E+00
  3.906250E-01  1.250000E+01  0.000000E+00
  3.906250E-01  1.289062E+01  0.000000E+00
  3.906250E-01  1.328125E+01  0.000000E+00
  3.906250E-01  1.367188E+01  0.000000E+00
  3.906250E-01  1.406250E+01  0.000000E+00
  3.906250E-01  1.445312E+01  0.000000E+00
  3.906250E-01  1.484375E+01  0.000000E+00
  3.906250E-01  1.523438E+01  0.000000E+00
  3.906250E-01  1.562500E+01  0.000000E+00
  3.906250E-01  1.601562E+01  0.000000E+00
  3.906250E-01  1.640625E+01  0.000000E+00
  3.906250E-01  1.679688E+01  0.000000E+00
  3.906250E-01  1.718750E+01  0.000000E+00
  3.906250E-01  1.757812E+01  0.000000E+00
  3.906250E-01  1.796875E+01  0.000000E+00
  3.906250E-01  1.835938E+01  0.000000E+00
  3.906250E-01  1.875000E+01  0.000000E+00
  3.906250E-01  1.914062E+01  0.000000E+00
  3.906250E-01  1.953125E+01  0.000000E+00
  3.906250E-01  1.992188E+01  0.000000E+00
  3.906250E-01  2.031250E+01  0.000000E+00
  3.906250E-01  2.070312E+01  0.000000E+00
  3.906250E-01  2.109375E+01  0.000000E+00
  3.906250E-01  2.148438E+01  0.000000E+00
  3.906250E-01  2.187500E+01  0.000000E+00
  3.906250E-01  2.226562E+01  0.000000E+00
  3.906250E-01  2.265625E+01  0.000000E+00
  3.906250E-01  2.304688E+01  0.000000E+00
  3.906250E-01  2.343750E+01  0.000000E+00
  3.906250E-01  2.382812E+01  0.000000E+00
  3.906250E-01  2.421875E+01  0.000000E+00
  3.906250E-01  2.460938E+01  0.000000E+00
  7.812500E-01  0.000000E+00  0.000000E+00
  7.812500E-01  3.906250E-01  0.000000E+00
  7.812500E-01  7.812500E-01  0.000000E+00
  7.812500E-01  1.171875E+00  0.000000E+00
  7.812500E-01  1.562500E+00  0.000000E+00
  7.812500E-01  1.953125E+00  0.000000E+00
  7.812500E-01  2.343750E+00  0.000000E+00
  7.812500E-01  2.734375E+00  0.000000E+00
  7.812500E-01  3.125000E+00  0.000000E+00
  7.812500E-01  3.515625E+00  0.000000E+00
  7.812500E-01  3.906250E+00  0.000000E+00
  7.812500E-01  4.296875E+00  0.000000E+00
  7.812500E-01  4.687500E+00  0.000000E+00
  7.812500E-01  5.078125E+00  0.000000E+00
  7.812500E-01  5.468750E+00  0.000000E+00
  7.812500E-01  5.859375E+00  0.000000E+00
  7.812500E-01  6.250000E+00  0.000000E+00
  7.812500E-01  6.640625E+00  0.000000E+00
  7.812500E-01  7.031250E+00  0.000000E+00
  7.812500E-01  7.421875E+00  0.000000E+00
  7.812500E-01  7.812500E+00  0.000000E+00
  7.812500E-01  8.203125E+00  0.000000E+00
  7.812500E-01  8.593750E+00  0.000000E+00
  7.812500E-01  8.984375E+00  0.000000E+00
  7.812500E-01  9.375000E+00  0.000000E+00
  7.812500E-01  9.765625E+00  0.000000E+00
  7.812500E-01  1.015625E+01  0.000000E+00
  7.812500E-01  1.054688E+01  0.000000E+00
  7.812500E-01  1.093750E+01  0.000000E+00
  7.812500E-01  1.132812E+01  0.000000E+00
  7.812500E-01  1.171875E+01  0.000000E+00
  7.812500E-01  1.210938E+01  0.000000E+00
  7.812500E-01  1.250000E+01  0.000000E+00
  7.812500E-01  1.289062E+01  0.000000E+00
  7.812500E-01  1.328125E+01  0.000000E+00
  7.812500E-01  1.367188E+01  0.000000E+00
  7.812500E-01  1.406250E+01  0.000000E+00
  7.812500E-01  1.445312E+01  0.000000E+00
  7.812500E-01  1.484375E+01  0.000000E+00
  7.812500E-01  1.523438E+01  0.000000E+00
  7.812500E-01  1.562500E+01  0.000000E+00
  7.812500E-01  1.601562E+01  0.000000E+00
  7.812500E-01  1.640625E+01  0.000000E+00
  7.812500E-01  1.679688E+01  0.000000E+00
  7.812500E-01  1.718750E+01  0.000000E+00
  7.812500E-01  1.757812E+01  0.000000E+00
  7.812500E-01  1.796875E+01  0.000000E+00
  7.812500E-01  1.835938E+01  0.000000E+00
  7.812500E-01  1.875000E+01  0.000000E+00
  7.812500E-01  1.914062E+01  0.000000E+00
  7.812500E-01  1.953125E+01  0.000000E+00
  7.812500E-01  1.992188E+01  0.000000E+00
  7.812500E-01  2.031250E+01  0.000000E+00
  7.812500E-01  2.070312E+01  0.000000E+00
  7.812500E-01  2.109375E+01  0.000000E+00
  7.812500E-01  2.148438E+01  0.000000E+00
  7.812500E-01  2.187500E+01  0.000000E+00
  7.812500E-01  2.226562E+01  0.000000E+00
  7.812500E-01  2.265625E+01  0.000000E+00
  7.812500E-01  2.304688E+01  0.000000E+00
  7.812500E-01  2.343750E+01  0.000000E+00
  7.812500E-01  2.382812E+01  0.000000E+00
  7.812500E-01  2.421875E+01  0.000000E+00
  7.812500E-01  2.460938E+01  0.000000E+00
  1.171875E+00  0.000000E+00  0.000000E+00
  1.171875E+00  3.906250E-01  0.000000E+00
  1.171875E+00  7.812500E-01  0.000000E+00
  1.171875E+00  1.171875E+00  0.000000E+00
  1.171875E+00  1.562500E+00  0.000000E+00
  1.171875E+00  1.953125E+00  0.000000E+00
  1.171875E+00  2.343750E+00  0.000000E+00
  1.171875E+00  2.734375E+00  0.000000E+00
  1.171875E+00  3.125000E+00  0.000000E+00
  1.171875E+00  3.515625E+00  0.000000E+00
  1.171875E+00  3.906250E+00  0.000000E+00
  1.171875E+00  4.296875E+00  0.000000E+00
  1.171875E+00  4.687500E+00  0.000000E+00
  1.171875E+00  5.078125E+00  0.000000E+00
  1.171875E+00  5.468750E+00  0.000000E+00
  1.171875E+00  5.859375E+00  0.000000E+00
  1.171875E+00  6.250000E+00  0.000000E+00
  1.171875E+00  6.640625E+00  0.000000E+00
  1.171875E+00  7.031250E+00  0.000000E+00
  1.171875E+00  7.421875E+00  0.000000E+00
  1.171875E+00  7.812500E+00  0.000000E+00
  1.171875E+00  8.203125E+00  0.000000E+00
  1.171875E+00  8.593750E+00  0.000000E+00
  1.171875E+00  8.984375E+00  0.000000E+00
  1.171875E+00  9.375000E+00  0.000000E+00
  1.171875E+00  9.765625E+00  0.000000E+00
  1.171875E+00  1.015625E+01  0.000000E+00
  1.171875E+00  1.054688E+01  0.000000E+00
  1.171875E+00  1.093750E+01  0.000000E+00
  1.171875E+00  1.132812E+01  0.000000E+00
  1.171875E+00  1.171875E+01  0.000000E+00
  1.171875E+00  1.210938E+01  0.000000E+00
  1.171875E+00  1.250000E+01  0.000000E+00
  1.171875E+00  1.289062E+01  0.000000E+00
  1.171875E+00  1.328125E+01  0.000000E+00
  1.171875E+00  1.367188E+01  0.000000E+00
  1.171875E+00  1.406250E+01  0.000000E+00
  1.171875E+00  1.445312E+01  0.000000E+00
[...]
POINT_DATA   4096
SCALARS CON  float  1
LOOKUP_TABLE default
  4.714754E-01
  4.732837E-01
  4.810878E-01
  4.767624E-01
  4.769952E-01
  4.686989E-01
  4.709893E-01
  4.688023E-01
  4.762254E-01
  4.742063E-01
  4.768844E-01
  4.688082E-01
  4.684948E-01
  4.625177E-01
  4.678251E-01
  4.676117E-01
  4.756214E-01
  4.736896E-01
  4.769493E-01
  4.700234E-01
  4.704630E-01
  4.633831E-01
  4.648646E-01
  4.586697E-01
  4.608565E-01
  4.566137E-01
  4.629209E-01
  4.638855E-01
  4.735390E-01
  4.731463E-01
  4.771290E-01
  4.703519E-01
  4.715915E-01
  4.670938E-01
  4.728406E-01
  4.707881E-01
  4.746444E-01
  4.678334E-01
  4.677494E-01
  4.604004E-01
  4.626559E-01
  4.581138E-01
  4.614708E-01
  4.562768E-01
  4.591670E-01
  4.561794E-01
  4.647429E-01
  4.687436E-01
  4.810940E-01
  4.811400E-01
  4.820810E-01
  4.692513E-01
  4.640653E-01
  4.563710E-01
  4.648076E-01
  4.719430E-01
  4.882249E-01
  4.912141E-01
  4.940529E-01
  4.822393E-01
  4.764601E-01
  4.647954E-01
  4.654087E-01
  4.627230E-01
  4.722435E-01
  4.758085E-01
  4.850451E-01
  4.832712E-01
  4.824704E-01
  4.718257E-01
  4.688234E-01
  4.635026E-01
  4.690747E-01
  4.701434E-01
  4.767763E-01
  4.739548E-01
  4.749329E-01
  4.681721E-01
  4.687860E-01
  4.651202E-01
  4.703276E-01
  4.699455E-01
  4.749762E-01
  4.708657E-01
  4.710733E-01
  4.642283E-01
  4.651789E-01
  4.614571E-01
  4.654070E-01
  4.630344E-01
  4.670996E-01
  4.650902E-01
  4.705659E-01
  4.701135E-01
  4.756701E-01
  4.728939E-01
  4.745774E-01
  4.682932E-01
  4.684485E-01
  4.631614E-01
  4.660176E-01
  4.635323E-01
  4.676251E-01
  4.639857E-01
  4.650962E-01
  4.583525E-01
  4.579283E-01
  4.520938E-01
  4.548182E-01
  4.540001E-01
  4.629933E-01
  4.680154E-01
  4.792560E-01
  4.795183E-01
  4.797620E-01
  4.688394E-01
  4.654802E-01
  4.619458E-01
  4.727620E-01
  4.815005E-01
  4.946903E-01
  4.935795E-01
  4.909826E-01
  4.777673E-01
  4.721817E-01
  4.636735E-01
  4.654662E-01
  4.640829E-01
  4.636431E-01
  4.749077E-01
  4.857387E-01
  4.872186E-01
  4.828341E-01
  4.723918E-01
  4.656974E-01
  4.621093E-01
  4.656850E-01
  4.696537E-01
  4.749129E-01
  4.752164E-01
  4.746416E-01
  4.705612E-01
  4.690559E-01
  4.671702E-01
  4.690018E-01
  4.694681E-01
  4.715843E-01
  4.705528E-01
  4.706252E-01
  4.681890E-01
  4.677961E-01
  4.654069E-01
  4.651821E-01
  4.632795E-01
  4.642510E-01
  4.640655E-01
  4.662475E-01
  4.656720E-01
  4.659675E-01
  4.635290E-01
  4.637486E-01
  4.634208E-01
  4.664536E-01
  4.674319E-01
  4.691459E-01
  4.670177E-01
  4.657151E-01
  4.618538E-01
  4.599494E-01
  4.559797E-01
  4.542939E-01
  4.514856E-01
  4.527144E-01
  4.548822E-01
  4.622563E-01
  4.694521E-01
  4.777100E-01
  4.795463E-01
  4.776521E-01
  4.697676E-01
  4.646056E-01
  4.625355E-01
  4.695306E-01
  4.793622E-01
  4.906872E-01
  4.934686E-01
  4.895311E-01
  4.769718E-01
  4.649344E-01
  4.539314E-01
  4.510140E-01
  4.531845E-01
  4.636827E-01
  4.758109E-01
  4.829188E-01
  4.873918E-01
  4.797046E-01
  4.704218E-01
  4.580913E-01
  4.549104E-01
  4.550432E-01
  4.639012E-01
  4.703015E-01
  4.776730E-01
  4.764487E-01
  4.746598E-01
  4.675781E-01
  4.657920E-01
  4.638394E-01
  4.687286E-01
  4.708198E-01
  4.749342E-01
  4.725873E-01
  4.722134E-01
  4.682818E-01
  4.692544E-01
  4.672514E-01
  4.684117E-01
  4.647415E-01
  4.643379E-01
  4.613236E-01
  4.639750E-01
  4.643965E-01
  4.681839E-01
  4.662617E-01
  4.657292E-01
  4.606611E-01
  4.606439E-01
  4.597385E-01
  4.647707E-01
  4.661417E-01
  4.687900E-01
  4.644612E-01
  4.619077E-01
  4.563015E-01
  4.569378E-01
  4.569164E-01
  4.627342E-01
  4.658072E-01
  4.723034E-01
  4.734168E-01
  4.751531E-01
  4.697660E-01
  4.665185E-01
  4.615472E-01
  4.652023E-01
  4.703922E-01
  4.812338E-01
  4.851654E-01
  4.860500E-01
  4.769087E-01
  4.690014E-01
  4.588746E-01
  4.558729E-01
  4.531019E-01
  4.580781E-01
  4.589909E-01
  4.742322E-01
  4.785586E-01
  4.842805E-01
  4.734872E-01
  4.670742E-01
  4.538378E-01
  4.543975E-01
  4.527054E-01
  4.632888E-01
  4.660899E-01
  4.748455E-01
  4.712280E-01
  4.730179E-01
  4.655566E-01
  4.679408E-01
  4.643663E-01
  4.712234E-01
  4.702541E-01
  4.767671E-01
  4.728565E-01
  4.755210E-01
  4.684834E-01
  4.694450E-01
  4.621624E-01
  4.639319E-01
  4.583012E-01
  4.621716E-01
  4.585697E-01
  4.637300E-01
  4.603307E-01
  4.648944E-01
  4.607456E-01
  4.651895E-01
  4.618362E-01
  4.674924E-01
  4.648558E-01
  4.700452E-01
  4.656058E-01
  4.681855E-01
  4.613666E-01
  4.631549E-01
  4.580825E-01
  4.636349E-01
  4.627207E-01
  4.709081E-01
  4.698980E-01
  4.756498E-01
  4.708841E-01
  4.726180E-01
  4.644278E-01
  4.643303E-01
  4.572779E-01
  4.616887E-01
  4.614060E-01
  4.718946E-01
  4.733554E-01
  4.796557E-01
  4.724426E-01
  4.697129E-01
  4.571607E-01
  4.545398E-01
  4.476800E-01
  4.547704E-01
  4.645938E-01
  4.744734E-01
  4.741781E-01
  4.795752E-01
  4.693022E-01
  4.647713E-01
  4.510604E-01
  4.513901E-01
  4.483084E-01
  4.596517E-01
  4.630253E-01
  4.738937E-01
  4.704739E-01
  4.725448E-01
  4.634077E-01
  4.658234E-01
  4.625885E-01
  4.725096E-01
  4.734567E-01
  4.815216E-01
  4.755564E-01
  4.761039E-01
  4.662270E-01
  4.673415E-01
  4.604425E-01
  4.639329E-01
  4.578650E-01
  4.618975E-01
  4.580605E-01
  4.663115E-01
  4.664073E-01
  4.751137E-01
  4.705901E-01
  4.719701E-01
  4.622110E-01
  4.640747E-01
  4.602929E-01
  4.692647E-01
  4.685548E-01
  4.745944E-01
  4.675390E-01
  4.691672E-01
  4.633050E-01
  4.706454E-01
  4.704836E-01
  4.791578E-01
  4.748551E-01
  4.769012E-01
  4.673314E-01
  4.672546E-01
  4.583369E-01
  4.605216E-01
  4.553062E-01
  4.622865E-01
  4.615507E-01
  4.703321E-01
  4.671212E-01
  4.706263E-01
  4.628114E-01
  4.651460E-01
  4.593647E-01
  4.643268E-01
  4.600996E-01
  4.662433E-01
  4.630235E-01
  4.709990E-01
  4.708581E-01
  4.748275E-01
  4.672882E-01
  4.648524E-01
  4.558881E-01
  4.574500E-01
  4.555116E-01
  4.633981E-01
  4.642139E-01
  4.705042E-01
  4.666371E-01
  4.683675E-01
  4.630587E-01
  4.673180E-01
  4.669812E-01
  4.756862E-01
  4.764950E-01
  4.820716E-01
  4.764986E-01
  4.752770E-01
  4.652557E-01
  4.630631E-01
  4.553509E-01
  4.573970E-01
  4.545533E-01
  4.608814E-01
  4.609216E-01
  4.684055E-01
  4.677715E-01
  4.731800E-01
  4.697832E-01
  4.730568E-01
  4.692182E-01
  4.736138E-01
  4.710999E-01
  4.753594E-01
  4.706175E-01
  4.716440E-01
  4.648913E-01
  4.670612E-01
  4.648059E-01
  4.725842E-01
  4.736809E-01
  4.802430E-01
  4.757918E-01
  4.756550E-01
  4.669150E-01
  4.662280E-01
  4.596234E-01
  4.615788E-01
  4.570369E-01
  4.605510E-01
  4.576280E-01
  4.628858E-01
  4.612457E-01
  4.668074E-01
  4.642930E-01
  4.680828E-01
  4.633841E-01
  4.653184E-01
  4.601955E-01
  4.640617E-01
  4.673089E-01
  4.681867E-01
  4.680367E-01
  4.710502E-01
  4.691547E-01
  4.676810E-01
  4.622314E-01
  4.611221E-01
  4.601732E-01
  4.650523E-01
  4.679295E-01
  4.720908E-01
  4.700754E-01
  4.684591E-01
  4.638807E-01
  4.651101E-01
  4.676312E-01
  4.760196E-01
  4.807870E-01
  4.841585E-01
  4.788286E-01
  4.727172E-01
  4.635549E-01
  4.601440E-01
  4.573231E-01
  4.598224E-01
  4.602848E-01
  4.639284E-01
  4.653755E-01
  4.711013E-01
  4.746287E-01
  4.798814E-01
  4.788878E-01
  4.774129E-01
  4.716860E-01
  4.706308E-01
  4.698220E-01
  4.739629E-01
  4.742746E-01
  4.746473E-01
  4.697397E-01
  4.682162E-01
  4.667788E-01
  4.715933E-01
  4.744149E-01
  4.779947E-01
  4.748680E-01
  4.720979E-01
  4.661653E-01
  4.646871E-01
  4.620029E-01
  4.634391E-01
  4.627280E-01
  4.655182E-01
  4.653367E-01
  4.670194E-01
  4.641246E-01
  4.634329E-01
  4.610508E-01
  4.642667E-01
  4.665890E-01
  4.715440E-01
  4.710588E-01
  4.709514E-01
  4.613331E-01
  4.622327E-01
  4.654672E-01
  4.684904E-01
  4.711404E-01
  4.716001E-01
  4.715807E-01
  4.709132E-01
  4.716176E-01
  4.723354E-01
  4.733161E-01
  4.722108E-01
  4.700314E-01
  4.667326E-01
  4.655234E-01
  4.666641E-01
  4.713541E-01
  4.766543E-01
  4.811105E-01
  4.811938E-01
  4.775575E-01
  4.704387E-01
  4.636498E-01
  4.583664E-01
  4.571710E-01
  4.588412E-01
  4.633448E-01
  4.675508E-01
  4.710918E-01
  4.721579E-01
  4.724538E-01
  4.717356E-01
  4.721652E-01
  4.730952E-01
  4.757050E-01
  4.778761E-01
  4.793406E-01
  4.776064E-01
  4.738426E-01
  4.682292E-01
  4.642014E-01
  4.623027E-01
  4.640769E-01
  4.670428E-01
  4.703644E-01
  4.712356E-01
  4.707581E-01
  4.689335E-01
  4.683899E-01
  4.683426E-01
  4.693511E-01
  4.692117E-01
  4.687867E-01
  4.672572E-01
  4.665411E-01
  4.658229E-01
  4.663563E-01
  4.667424E-01
  4.679454E-01
  4.683064E-01
  4.684685E-01
  4.667680E-01
  4.646560E-01
  4.619798E-01
  4.616730E-01
  4.594470E-01
  4.627669E-01
  4.670822E-01
  4.730362E-01
  4.748057E-01
  4.754027E-01
  4.729843E-01
  4.730803E-01
  4.731644E-01
  4.756962E-01
  4.752372E-01
  4.738661E-01
  4.687495E-01
  4.657060E-01
  4.640377E-01
  4.683326E-01
  4.737226E-01
  4.800014E-01
  4.801314E-01
  4.765400E-01
  4.681558E-01
  4.624699E-01
  4.591950E-01
  4.622986E-01
  4.665321E-01
  4.723983E-01
  4.743405E-01
  4.755663E-01
  4.739792E-01
  4.743595E-01
  4.734620E-01
  4.739864E-01
  4.720848E-01
  4.717830E-01
  4.706948E-01
  4.724575E-01
  4.725055E-01
  4.726543E-01
  4.689380E-01
  4.659931E-01
  4.625083E-01
  4.632250E-01
  4.642937E-01
  4.673618E-01
  4.675352E-01
  4.682660E-01
  4.673858E-01
  4.692719E-01
  4.701496E-01
  4.722513E-01
  4.715508E-01
  4.721304E-01
  4.716421E-01
  4.736068E-01
  4.734105E-01
  4.732421E-01
  4.699051E-01
  4.685598E-01
  4.673942E-01
  4.696155E-01
  4.697963E-01
  4.693384E-01
  4.647646E-01
  4.550011E-01
  4.564566E-01
  4.607337E-01
  4.664566E-01
  4.720234E-01
  4.756807E-01
  4.770384E-01
  4.766337E-01
  4.758802E-01
  4.753291E-01
  4.748198E-01
  4.732657E-01
  4.704091E-01
  4.669004E-01
  4.646153E-01
  4.648124E-01
  4.677960E-01
  4.720421E-01
  4.754640E-01
  4.758907E-01
  4.729181E-01
  4.676473E-01
  4.626780E-01
  4.602635E-01
  4.619327E-01
  4.671088E-01
  4.736541E-01
  4.781736E-01
  4.785208E-01
  4.745958E-01
  4.688749E-01
  4.642433E-01
  4.630013E-01
  4.653252E-01
  4.699354E-01
  4.740773E-01
  4.754540E-01
  4.729413E-01
  4.678355E-01
  4.624313E-01
  4.591618E-01
  4.586921E-01
  4.603954E-01
  4.625192E-01
  4.640687E-01
  4.648948E-01
  4.661021E-01
  4.683352E-01
  4.714833E-01
  4.740007E-01
  4.746075E-01
  4.728851E-01
  4.702723E-01
  4.685066E-01
  4.689915E-01
  4.713985E-01
  4.745873E-01
  4.767950E-01
  4.770882E-01
  4.749981E-01
  4.710283E-01
  4.657900E-01
  4.605626E-01
  4.565110E-01
  4.580420E-01
  4.581328E-01
  4.598056E-01
  4.663233E-01
  4.706046E-01
  4.744900E-01
  4.728398E-01
  4.715708E-01
  4.686295E-01
  4.698086E-01
  4.701370E-01
  4.721023E-01
  4.696426E-01
  4.672366E-01
  4.623835E-01
  4.619910E-01
  4.630885E-01
  4.692331E-01
  4.731761E-01
  4.761651E-01
  4.724767E-01
  4.681429E-01
  4.621783E-01
  4.620243E-01
  4.642157E-01
  4.715356E-01
  4.764263E-01
  4.804163E-01
  4.781499E-01
  4.754517E-01
  4.701775E-01
  4.682392E-01
  4.653788E-01
  4.655106E-01
  4.639994E-01
  4.653285E-01
  4.649922E-01
  4.667527E-01
  4.654167E-01
  4.651975E-01
  4.624159E-01
  4.625668E-01
  4.618574E-01
  4.643078E-01
  4.646714E-01
  4.669183E-01
  4.670109E-01
  4.698399E-01
  4.706358E-01
  4.725494E-01
  4.701816E-01
  4.685729E-01
  4.654470E-01
  4.672248E-01
  4.697196E-01
  4.754318E-01
  4.773885E-01
  4.787759E-01
  4.759082E-01
  4.748266E-01
  4.718452E-01
  4.707768E-01
  4.662725E-01
  4.629261E-01
  4.560496E-01
  4.594018E-01
  4.607992E-01
  4.664299E-01
  4.681970E-01
  4.720888E-01
  4.705474E-01
  4.711181E-01
  4.677850E-01
  4.684170E-01
  4.659707E-01
  4.669064E-01
  4.637569E-01
  4.639333E-01
  4.613913E-01
  4.640127E-01
  4.648772E-01
  4.702688E-01
  4.718243E-01
  4.751930E-01
  4.723515E-01
  4.705556E-01
  4.641564E-01
  4.624455E-01
  4.604281E-01
  4.657045E-01
  4.696850E-01
  4.762404E-01
  4.753679E-01
  4.735181E-01
  4.656589E-01
  4.621849E-01
  4.585681E-01
  4.622364E-01
  4.645199E-01
  4.697714E-01
  4.688258E-01
  4.684337E-01
  4.630403E-01
  4.618345E-01
  4.591763E-01
  4.620600E-01
  4.623843E-01
  4.659838E-01
  4.653693E-01
  4.679930E-01
  4.674320E-01
  4.707752E-01
  4.701304E-01
  4.714405E-01
  4.672116E-01
  4.653863E-01
  4.607471E-01
  4.620693E-01
  4.630587E-01
  4.700149E-01
  4.739945E-01
  4.798326E-01
  4.788198E-01
  4.777834E-01
  4.706672E-01
  4.663577E-01
  4.595373E-01
  4.583340E-01
  4.640995E-01
  4.644646E-01
  4.634376E-01
  4.668466E-01
  4.675543E-01
  4.698875E-01
  4.673007E-01
  4.664734E-01
  4.630496E-01
  4.639810E-01
  4.632328E-01
  4.655569E-01
  4.640059E-01
  4.643740E-01
  4.618313E-01
  4.637305E-01
  4.650938E-01
  4.713175E-01
  4.746570E-01
  4.786861E-01
  4.760028E-01
  4.729594E-01
  4.657943E-01
  4.630831E-01
  4.606426E-01
  4.642145E-01
  4.662753E-01
  4.705718E-01
  4.699325E-01
  4.705038E-01
  4.675405E-01
  4.678422E-01
  4.655385E-01
  4.660497E-01
  4.633743E-01
  4.638920E-01
  4.623787E-01
  4.648168E-01
  4.647038E-01
  4.671164E-01
  4.659127E-01
  4.674257E-01
  4.664075E-01
  4.688902E-01
  4.685250E-01
  4.706147E-01
  4.690077E-01
  4.696672E-01
  4.667169E-01
  4.659937E-01
  4.619125E-01
  4.613899E-01
  4.599353E-01
  4.640715E-01
  4.670947E-01
  4.727712E-01
  4.731569E-01
  4.736342E-01
  4.695365E-01
  4.687052E-01
  4.663371E-01
  4.679863E-01
  4.665805E-01
  4.671544E-01
  4.663790E-01
  4.684468E-01
  4.674665E-01
  4.675903E-01
  4.666950E-01
  4.681290E-01
  4.681305E-01
  4.690894E-01
  4.674929E-01
  4.666392E-01
  4.638382E-01
  4.628374E-01
  4.611719E-01
  4.625633E-01
  4.640245E-01
  4.681815E-01
  4.709849E-01
  4.748818E-01
  4.764448E-01
  4.785918E-01
  4.774267E-01
  4.752418E-01
  4.688252E-01
  4.628909E-01
  4.569184E-01
  4.561469E-01
  4.575987E-01
  4.623623E-01
  4.644287E-01
  4.653025E-01
  4.625636E-01
  4.616863E-01
  4.615065E-01
  4.653249E-01
  4.683477E-01
  4.715039E-01
  4.704188E-01
  4.687841E-01
  4.651616E-01
  4.643188E-01
  4.637259E-01
  4.660900E-01
  4.673246E-01
  4.697312E-01
  4.697023E-01
  4.702948E-01
  4.684380E-01
  4.674876E-01
  4.646358E-01
  4.635547E-01
  4.616798E-01
  4.625098E-01
  4.628196E-01
  4.652521E-01
  4.660792E-01
  4.680240E-01
  4.676622E-01
  4.678820E-01
  4.653479E-01
  4.635376E-01
  4.603676E-01
  4.603124E-01
  4.608670E-01
  4.644695E-01
  4.771635E-01
  4.753204E-01
  4.715107E-01
  4.684905E-01
  4.668268E-01
  4.667656E-01
  4.668594E-01
  4.669351E-01
  4.663151E-01
  4.657191E-01
  4.648355E-01
  4.643481E-01
  4.639604E-01
  4.645382E-01
  4.658449E-01
  4.684340E-01
  4.714848E-01
  4.749839E-01
  4.776946E-01
  4.792970E-01
  4.784069E-01
  4.751565E-01
  4.695834E-01
  4.637813E-01
  4.590345E-01
  4.569284E-01
  4.568138E-01
  4.582707E-01
  4.598723E-01
  4.619034E-01
  4.641033E-01
  4.670091E-01
  4.693529E-01
  4.705585E-01
  4.696219E-01
  4.678188E-01
  4.661022E-01
  4.660078E-01
  4.668064E-01
  4.680352E-01
  4.684855E-01
  4.689233E-01
  4.695073E-01
  4.708915E-01
  4.716737E-01
  4.711469E-01
  4.683044E-01
  4.644833E-01
  4.607686E-01
  4.591813E-01
  4.599434E-01
  4.633900E-01
  4.678940E-01
  4.721572E-01
  4.736785E-01
  4.717618E-01
  4.662052E-01
  4.595242E-01
  4.540206E-01
  4.525860E-01
  4.555389E-01
  4.623300E-01
  4.698378E-01
  4.755876E-01
  4.791065E-01
  4.786060E-01
  4.745289E-01
  4.688363E-01
  4.655814E-01
  4.649675E-01
  4.671720E-01
  4.691770E-01
  4.702014E-01
  4.685230E-01
  4.658413E-01
  4.627185E-01
  4.618744E-01
  4.631640E-01
  4.670857E-01
  4.708469E-01
  4.736359E-01
  4.738769E-01
  4.736671E-01
  4.733681E-01
  4.741186E-01
  4.733721E-01
  4.704866E-01
  4.644699E-01
  4.585325E-01
  4.543906E-01
  4.543241E-01
  4.562926E-01
  4.590504E-01
  4.600366E-01
  4.607107E-01
  4.618158E-01
  4.656047E-01
  4.703635E-01
  4.748546E-01
  4.758197E-01
  4.737555E-01
  4.690542E-01
  4.650478E-01
  4.624533E-01
  4.628170E-01
  4.645856E-01
  4.677101E-01
  4.699030E-01
  4.710392E-01
  4.693944E-01
  4.662353E-01
  4.618057E-01
  4.590164E-01
  4.584657E-01
  4.616590E-01
  4.664609E-01
  4.715087E-01
  4.733234E-01
  4.719152E-01
  4.671606E-01
  4.620956E-01
  4.573520E-01
  4.546733E-01
  4.533545E-01
  4.550235E-01
  4.593239E-01
  4.668229E-01
  4.741620E-01
  4.854344E-01
  4.807628E-01
  4.752472E-01
  4.680281E-01
  4.650792E-01
  4.627804E-01
  4.641134E-01
  4.639549E-01
  4.653648E-01
  4.641663E-01
  4.645314E-01
  4.631018E-01
  4.643401E-01
  4.645358E-01
  4.672022E-01
  4.676186E-01
  4.691027E-01
  4.678392E-01
  4.685137E-01
  4.678894E-01
  4.697761E-01
  4.693307E-01
  4.695089E-01
  4.662684E-01
  4.644415E-01
  4.612463E-01
  4.611199E-01
  4.600070E-01
  4.615840E-01
  4.621798E-01
  4.661364E-01
  4.693192E-01
  4.742693E-01
  4.751409E-01
  4.748570E-01
  4.702789E-01
  4.674365E-01
  4.641037E-01
  4.644560E-01
  4.637842E-01
  4.653645E-01
  4.654801E-01
  4.684343E-01
  4.698079E-01
  4.719099E-01
  4.692019E-01
  4.655880E-01
  4.590479E-01
  4.562033E-01
  4.551200E-01
  4.599372E-01
  4.653309E-01
  4.726680E-01
  4.754131E-01
  4.759694E-01
  4.705269E-01
  4.647168E-01
  4.571394E-01
  4.541675E-01
  4.535804E-01
  4.596178E-01
  4.671578E-01
  4.773786E-01
  4.829631E-01
  4.793115E-01
  4.761411E-01
  4.739850E-01
  4.661810E-01
  4.642221E-01
  4.606026E-01
  4.636398E-01
  4.629296E-01
  4.657307E-01
  4.626339E-01
  4.630783E-01
  4.596334E-01
  4.623403E-01
  4.625952E-01
  4.679574E-01
  4.674564E-01
  4.684897E-01
  4.628004E-01
  4.617084E-01
  4.589320E-01
  4.637869E-01
  4.655376E-01
  4.701282E-01
  4.672641E-01
  4.669144E-01
  4.626345E-01
  4.647467E-01
  4.638992E-01
  4.672698E-01
  4.650925E-01
  4.670092E-01
  4.658652E-01
  4.712544E-01
  4.731113E-01
  4.779089E-01
  4.748635E-01
  4.728997E-01
  4.649536E-01
  4.622594E-01
  4.577170E-01
  4.606042E-01
  4.615217E-01
  4.678625E-01
  4.689368E-01
  4.719143E-01
  4.672073E-01
  4.645661E-01
  4.572936E-01
  4.565635E-01
  4.550557E-01
  4.612906E-01
  4.646218E-01
  4.712033E-01
  4.703127E-01
  4.709691E-01
  4.661703E-01
  4.667842E-01
  4.645417E-01
  4.673729E-01
  4.654275E-01
  4.677805E-01
  4.668933E-01
  4.724097E-01
  4.744165E-01
  4.772895E-01
  4.712861E-01
  4.716171E-01
  4.646543E-01
  4.655602E-01
  4.599339E-01
  4.620478E-01
  4.573246E-01
  4.602959E-01
  4.567626E-01
  4.613560E-01
  4.596514E-01
  4.657454E-01
  4.643902E-01
  4.690119E-01
  4.642878E-01
  4.649375E-01
  4.577827E-01
  4.591145E-01
  4.557783E-01
  4.621351E-01
  4.625401E-01
  4.698278E-01
  4.684896E-01
  4.731452E-01
  4.698074E-01
  4.733584E-01
  4.692394E-01
  4.722625E-01
  4.687058E-01
  4.739213E-01
  4.730524E-01
  4.789417E-01
  4.749339E-01
  4.749822E-01
  4.659515E-01
  4.649604E-01
  4.591923E-01
  4.630289E-01
  4.609076E-01
  4.664681E-01
  4.652833E-01
  4.719192E-01
  4.709102E-01
  4.750283E-01
  4.684355E-01
  4.664403E-01
  4.569721E-01
  4.570964E-01
  4.536676E-01
  4.605055E-01
  4.615255E-01
  4.694073E-01
  4.686409E-01
  4.737605E-01
  4.707662E-01
  4.747481E-01
  4.713320E-01
  4.750768E-01
  4.714659E-01
  4.754314E-01
  4.726518E-01
  4.774478E-01
  4.744137E-01
  4.667593E-01
  4.651845E-01
  4.699889E-01
  4.650532E-01
  4.670913E-01
  4.615483E-01
  4.645707E-01
  4.601533E-01
  4.634254E-01
  4.586102E-01
  4.618825E-01
  4.584525E-01
  4.644454E-01
  4.636805E-01
  4.702450E-01
  4.664898E-01
  4.674199E-01
  4.586392E-01
  4.586650E-01
  4.543243E-01
  4.615292E-01
  4.626845E-01
  4.706641E-01
  4.682861E-01
  4.720999E-01
  4.681668E-01
  4.731728E-01
  4.705744E-01
  4.747221E-01
  4.693909E-01
  4.715076E-01
  4.669598E-01
  4.720553E-01
  4.699407E-01
  4.745777E-01
  4.690134E-01
  4.693343E-01
  4.613070E-01
  4.624129E-01
  4.582465E-01
  4.647036E-01
  4.653456E-01
  4.741886E-01
  4.733640E-01
  4.771287E-01
  4.695899E-01
  4.682046E-01
  4.596110E-01
  4.612961E-01