# vtk DataFile Version 2.0
title
ASCII
DATASET STRUCTURED_GRID
DIMENSIONS   64   64    1
POINTS   4096  float
  0.000000E+00  0.000000E+00  0.000000E+00
  0.000000E+00  3.906250E-01  0.000000E+00
  0.000000E+00  7.812500E-01  0.000000E+00
  0.000000E+00  1.171875E+00  0.000000E+00
  0.000000E+00  1.562500E+00  0.000000E+00
  0.000000E+00  1.953125E+00  0.000000E+00
  0.000000E+00  2.343750E+00  0.000000E+00
  0.000000E+00  2.734375E+00  0.000000E+00
  0.000000E+00  3.125000E+00  0.000000E+00
  0.000000E+00  3.515625E+00  0.000000E+00
  0.000000E+00  3.906250E+00  0.000000E+00
  0.000000E+00  4.296875E+00  0.000000E+00
  0.000000E+00  4.687500E+00  0.000000E+00
  0.000000E+00  5.078125E+00  0.000000E+00
  0.000000E+00  5.468750E+00  0.000000E+00
  0.000000E+00  5.859375E+00  0.000000E+00
  0.000000E+00  6.250000E+00  0.000000E+00
  0.000000E+00  6.640625E+00  0.000000E+00
  0.000000E+00  7.031250E+00  0.000000E+00
  0.000000E+00  7.421875E+00  0.000000E+00
  0.000000E+00  7.812500E+00  0.000000E+00
  0.000000E+00  8.203125E+00  0.000000E+00
  0.000000E+00  8.593750E+00  0.000000E+00
  0.000000E+00  8.984375E+00  0.000000E+00
  0.000000E+00  9.375000E+00  0.000000E+00
  0.000000E+00  9.765625E+00  0.000000E+00
  0.000000E+00  1.015625E+01  0.000000E+00
  0.000000E+00  1.054688E+01  0.000000E+00
  0.000000E+00  1.093750E+01  0.000000E+00
  0.000000E+00  1.132812E+01  0.000000E+00
  0.000000E+00  1.171875E+01  0.000000E+00
  0.000000E+00  1.210938E+01  0.000000E+00
  0.000000E+00  1.250000E+01  0.000000E+00
  0.000000E+00  1.289062E+01  0.000000E+00
  0.000000E+00  1.328125E+01  0.000000E+00
  0.000000E+00  1.367188E+01  0.000000E+00
  0.000000E+00  1.406250E+01  0.000000E+00
  0.000000E+00  1.445312E+01  0.000000E+00
  0.000000E+00  1.484375E+01  0.000000E+00
  0.000000E+00  1.523438E+01  0.000000E+00
  0.000000E+00  1.562500E+01  0.000000E+00
  0.000000E+00  1.601562E+01  0.000000E+00
  0.000000E+00  1.640625E+01  0.000000E+00
  0.000000E+00  1.679688E+01  0.000000E+00
  0.000000E+00  1.718750E+01  0.000000E+00
  0.000000E+00  1.757812E+01  0.000000E+00
  0.000000E+00  1.796875E+01  0.000000E+00
  0.000000E+00  1.835938E+01  0.000000E+00
  0.000000E+00  1.875000E+01  0.000000E+00
  0.000000E+00  1.914062E+01  0.000000E+00
  0.000000E+00  1.953125E+01  0.000000E+00
  0.000000E+00  1.992188E+01  0.000000E+00
  0.000000E+00  2.031250E+01  0.000000E+00
  0.000000E+00  2.070312E+01  0.000000E+00
  0.000000E+00  2.109375E+01  0.000000E+00
  0.000000E+00  2.148438E+01  0.000000E+00
  0.000000E+00  2.187500E+01  0.000000E+00
  0.000000E+00  2.226562E+01  0.000000E+00
  0.000000E+00  2.265625E+01  0.000000E+00
  0.000000E+00  2.304688E+01  0.000000E+00
  0.000000E+00  2.343750E+01  0.000000E+00
  0.000000E+00  2.382812E+01  0.000000E+00
  0.000000E+00  2.421875E+01  0.000000E+00
  0.000000E+00  2.460938E+01  0.000000E+00
  3.906250E-01  0.000000E+00  0.000000E+00
  3.906250E-01  3.906250E-01  0.000000E+00
  3.906250E-01  7.812500E-01  0.000000E+00
  3.906250E-01  1.171875E+00  0.000000E+00
  3.906250E-01  1.562500E+00  0.000000E+00
  3.906250E-01  1.953125E+00  0.000000E+00
  3.906250E-01  2.343750E+00  0.000000E+00
  3.906250E-01  2.734375E+00  0.000000E+00
  3.906250E-01  3.125000E+00  0.000000E+00
  3.906250E-01  3.515625E+00  0.000000E+00
  3.906250E-01  3.906250E+00  0.000000E+00
  3.906250E-01  4.296875E+00  0.000000E+00
  3.906250E-01  4.687500E+00  0.000000E+00
  3.906250E-01  5.078125E+00  0.000000E+00
  3.906250E-01  5.468750E+00  0.000000E+00
  3.906250E-01  5.859375E+00  0.000000E+00
  3.906250E-01  6.250000E+00  0.000000E+00
  3.906250E-01  6.640625E+00  0.000000E+00
  3.906250E-01  7.031250E+00  0.000000E+00
  3.906250E-01  7.421875E+00  0.000000E+00
  3.906250E-01  7.812500E+00  0.000000E+00
  3.906250E-01  8.203125E+00  0.000000E+00
  3.906250E-01  8.593750E+00  0.000000E+00
  3.906250E-01  8.984375E+00  0.000000E+00
  3.906250E-01  9.375000E+00  0.000000E+00
  3.906250E-01  9.765625E+00  0.000000E+00
  3.906250E-01  1.015625E+01  0.000000E+00
  3.906250E-01  1.054688E+01  0.000000E+00
  3.906250E-01  1.093750E+01  0.000000E+00
  3.906250E-01  1.132812E+01  0.000000E+00
  3.906250E-01  1.171875E+01  0.000000E+00
  3.906250E-01  1.210938E+01  0.000000E+00
  3.906250E-01  1.250000E+01  0.000000E+00
  3.906250E-01  1.289062E+01  0.000000E+00
  3.906250E-01  1.328125E+01  0.000000E+00
  3.906250E-01  1.367188E+01  0.000000E+00
  3.906250E-01  1.406250E+01  0.000000E+00
  3.906250E-01  1.445312E+01  0.000000E+00
  3.906250E-01  1.484375E+01  0.000000E+00
  3.906250E-01  1.523438E+01  0.000000E+00
  3.906250E-01  1.562500E+01  0.000000E+00
  3.906250E-01  1.601562E+01  0.000000E+00
  3.906250E-01  1.640625E+01  0.000000E+00
  3.906250E-01  1.679688E+01  0.000000E+00
  3.906250E-01  1.718750E+01  0.000000E+00
  3.906250E-01  1.757812E+01  0.000000E+00
  3.906250E-01  1.796875E+01  0.000000E+00
  3.906250E-01  1.835938E+01  0.000000E+00
  3.906250E-01  1.875000E+01  0.000000E+00
  3.906250E-01  1.914062E+01  0.000000E+00
  3.906250E-01  1.953125E+01  0.000000E+00
  3.906250E-01  1.992188E+01  0.000000E+00
  3.906250E-01  2.031250E+01  0.000000E+00
  3.906250E-01  2.070312E+01  0.000000E+00
  3.906250E-01  2.109375E+01  0.000000E+00
  3.906250E-01  2.148438E+01  0.000000E+00
  3.906250E-01  2.187500E+01  0.000000E+00
  3.906250E-01  2.226562E+01  0.000000E+00
  3.906250E-01  2.265625E+01  0.000000E+00
  3.906250E-01  2.304688E+01  0.000000E+00
  3.906250E-01  2.343750E+01  0.000000E+00
  3.906250E-01  2.382812E+01  0.000000E+00
  3.906250E-01  2.421875E+01  0.000000E+00
  3.906250E-01  2.460938E+01  0.000000E+00
  7.812500E-01  0.000000E+00  0.000000E+00
  7.812500E-01  3.906250E-01  0.000000E+00
  7.812500E-01  7.812500E-01  0.000000E+00
  7.812500E-01  1.171875E+00  0.000000E+00
  7.812500E-01  1.562500E+00  0.000000E+00
  7.812500E-01  1.953125E+00  0.000000E+00
  7.812500E-01  2.343750E+00  0.000000E+00
  7.812500E-01  2.734375E+00  0.000000E+00
  7.812500E-01  3.125000E+00  0.000000E+00
  7.812500E-01  3.515625E+00  0.000000E+00
  7.812500E-01  3.906250E+00  0.000000E+00
  7.812500E-01  4.296875E+00  0.000000E+00
  7.812500E-01  4.687500E+00  0.000000E+00
  7.812500E-01  5.078125E+00  0.000000E+00
  7.812500E-01  5.468750E+00  0.000000E+00
  7.812500E-01  5.859375E+00  0.000000E+00
  7.812500E-01  6.250000E+00  0.000000E+00
  7.812500E-01  6.640625E+00  0.000000E+00
  7.812500E-01  7.031250E+00  0.000000E+00
  7.812500E-01  7.421875E+00  0.000000E+00
  7.812500E-01  7.812500E+00  0.000000E+00
  7.812500E-01  8.203125E+00  0.000000E+00
  7.812500E-01  8.593750E+00  0.000000E+00
  7.812500E-01  8.984375E+00  0.000000E+00
  7.812500E-01  9.375000E+00  0.000000E+00
  7.812500E-01  9.765625E+00  0.000000E+00
  7.812500E-01  1.015625E+01  0.000000E+00
  7.812500E-01  1.054688E+01  0.000000E+00
  7.812500E-01  1.093750E+01  0.000000E+00
  7.812500E-01  1.132812E+01  0.000000E+00
  7.812500E-01  1.171875E+01  0.000000E+00
  7.812500E-01  1.210938E+01  0.000000E+00
  7.812500E-01  1.250000E+01  0.000000E+00
  7.812500E-01  1.289062E+01  0.000000E+00
  7.812500E-01  1.328125E+01  0.000000E+00
  7.812500E-01  1.367188E+01  0.000000E+00
  7.812500E-01  1.406250E+01  0.000000E+00
  7.812500E-01  1.445312E+01  0.000000E+00
  7.812500E-01  1.484375E+01  0.000000E+00
  7.812500E-01  1.523438E+01  0.000000E+00
  7.812500E-01  1.562500E+01  0.000000E+00
  7.812500E-01  1.601562E+01  0.000000E+00
  7.812500E-01  1.640625E+01  0.000000E+00
  7.812500E-01  1.679688E+01  0.000000E+00
  7.812500E-01  1.718750E+01  0.000000E+00
  7.812500E-01  1.757812E+01  0.000000E+00
  7.812500E-01  1.796875E+01  0.000000E+00
  7.812500E-01  1.835938E+01  0.000000E+00
  7.812500E-01  1.875000E+01  0.000000E+00
  7.812500E-01  1.914062E+01  0.000000E+00
  7.812500E-01  1.953125E+01  0.000000E+00
  7.812500E-01  1.992188E+01  0.000000E+00
  7.812500E-01  2.031250E+01  0.000000E+00
  7.812500E-01  2.070312E+01  0.000000E+00
  7.812500E-01  2.109375E+01  0.000000E+00
  7.812500E-01  2.148438E+01  0.000000E+00
  7.812500E-01  2.187500E+01  0.000000E+00
  7.812500E-01  2.226562E+01  0.000000E+00
  7.812500E-01  2.265625E+01  0.000000E+00
  7.812500E-01  2.304688E+01  0.000000E+00
  7.812500E-01  2.343750E+01  0.000000E+00
  7.812500E-01  2.382812E+01  0.000000E+00
  7.812500E-01  2.421875E+01  0.000000E+00
  7.812500E-01  2.460938E+01  0.000000E+00
  1.171875E+00  0.000000E+00  0.000000E+00
  1.171875E+00  3.906250E-01  0.000000E+00
  1.171875E+00  7.812500E-01  0.000000E+00
  1.171875E+00  1.171875E+00  0.000000E+00
  1.171875E+00  1.562500E+00  0.000000E+00
  1.171875E+00  1.953125E+00  0.000000E+00
  1.171875E+00  2.343750E+00  0.000000E+00
  1.171875E+00  2.734375E+00  0.000000E+00
  1.171875E+00  3.125000E+00  0.000000E+00
  1.171875E+00  3.515625E+00  0.000000E+00
  1.171875E+00  3.906250E+00  0.000000E+00
  1.171875E+00  4.296875E+00  0.000000E+00
  1.171875E+00  4.687500E+00  0.000000E+00
  1.171875E+00  5.078125E+00  0.000000E+00
  1.171875E+00  5.468750E+00  0.000000E+00
  1.171875E+00  5.859375E+00  0.000000E+00
  1.171875E+00  6.250000E+00  0.000000E+00
  1.171875E+00  6.640625E+00  0.000000E+00
  1.171875E+00  7.031250E+00  0.000000E+00
  1.171875E+00  7.421875E+00  0.000000E+00
  1.171875E+00  7.812500E+00  0.000000E+00
  1.171875E+00  8.203125E+00  0.000000E+00
  1.171875E+00  8.593750E+00  0.000000E+00
  1.171875E+00  8.984375E+00  0.000000E+00
  1.171875E+00  9.375000E+00  0.000000E+00
  1.171875E+00  9.765625E+00  0.000000E+00
  1.171875E+00  1.015625E+01  0.000000E+00
  1.171875E+00  1.054688E+01  0.000000E+00
  1.171875E+00  1.093750E+01  0.000000E+00
  1.171875E+00  1.132812E+01  0.000000E+00
  1.171875E+00  1.171875E+01  0.000000E+00
  1.171875E+00  1.210938E+01  0.000000E+00
  1.171875E+00  1.250000E+01  0.000000E+00
  1.171875E+00  1.289062E+01  0.000000E+00
  1.171875E+00  1.328125E+01  0.000000E+00
  1.171875E+00  1.367188E+01  0.000000E+00
  1.171875E+00  1.406250E+01  0.000000E+00
  1.171875E+00  1.445312E+01  0.000000E+00
[...]
POINT_DATA   4096
SCALARS CON  float  1
LOOKUP_TABLE default
  4.711009E-01
  4.676364E-01
  4.715867E-01
  4.729498E-01
  4.750408E-01
  4.663886E-01
  4.632846E-01
  4.631457E-01
  4.730164E-01
  4.739427E-01
  4.721873E-01
  4.655781E-01
  4.679531E-01
  4.666025E-01
  4.687907E-01
  4.650103E-01
  4.667102E-01
  4.674999E-01
  4.734694E-01
  4.704103E-01
  4.696708E-01
  4.649790E-01
  4.661630E-01
  4.624843E-01
  4.640196E-01
  4.627961E-01
  4.653527E-01
  4.617492E-01
  4.666703E-01
  4.706467E-01
  4.762211E-01
  4.697040E-01
  4.644445E-01
  4.603189E-01
  4.696436E-01
  4.728480E-01
  4.717544E-01
  4.642219E-01
  4.660114E-01
  4.624209E-01
  4.625872E-01
  4.632983E-01
  4.684046E-01
  4.620343E-01
  4.631721E-01
  4.663821E-01
  4.689116E-01
  4.599421E-01
  4.642503E-01
  4.732949E-01
  4.773439E-01
  4.647398E-01
  4.631918E-01
  4.646098E-01
  4.684398E-01
  4.687317E-01
  4.783822E-01
  4.805210E-01
  4.801204E-01
  4.731980E-01
  4.749208E-01
  4.729493E-01
  4.738223E-01
  4.699341E-01
  4.702488E-01
  4.680903E-01
  4.749013E-01
  4.807097E-01
  4.831816E-01
  4.726490E-01
  4.643995E-01
  4.624282E-01
  4.717209E-01
  4.725602E-01
  4.682970E-01
  4.628222E-01
  4.679999E-01
  4.705631E-01
  4.713479E-01
  4.658551E-01
  4.662048E-01
  4.684919E-01
  4.764622E-01
  4.775716E-01
  4.756500E-01
  4.662031E-01
  4.613466E-01
  4.587138E-01
  4.643252E-01
  4.670101E-01
  4.694936E-01
  4.659823E-01
  4.680231E-01
  4.705604E-01
  4.746551E-01
  4.689637E-01
  4.648769E-01
  4.633708E-01
  4.696119E-01
  4.688513E-01
  4.672397E-01
  4.643018E-01
  4.663994E-01
  4.633657E-01
  4.639793E-01
  4.626526E-01
  4.626776E-01
  4.574268E-01
  4.581997E-01
  4.603397E-01
  4.650333E-01
  4.629742E-01
  4.703859E-01
  4.811778E-01
  4.837056E-01
  4.691081E-01
  4.634355E-01
  4.640958E-01
  4.690052E-01
  4.714694E-01
  4.782446E-01
  4.778064E-01
  4.759468E-01
  4.689496E-01
  4.674644E-01
  4.672064E-01
  4.722700E-01
  4.710598E-01
  4.630120E-01
  4.666512E-01
  4.766449E-01
  4.829789E-01
  4.800669E-01
  4.690508E-01
  4.653920E-01
  4.665858E-01
  4.705872E-01
  4.692636E-01
  4.680615E-01
  4.677747E-01
  4.708474E-01
  4.713264E-01
  4.722083E-01
  4.688209E-01
  4.683548E-01
  4.702758E-01
  4.744691E-01
  4.741980E-01
  4.735084E-01
  4.687849E-01
  4.649081E-01
  4.617523E-01
  4.644659E-01
  4.659443E-01
  4.658240E-01
  4.624695E-01
  4.648689E-01
  4.675794E-01
  4.677965E-01
  4.626418E-01
  4.616502E-01
  4.640516E-01
  4.703397E-01
  4.707989E-01
  4.691486E-01
  4.670321E-01
  4.680586E-01
  4.651833E-01
  4.643404E-01
  4.636737E-01
  4.625646E-01
  4.566091E-01
  4.549415E-01
  4.579242E-01
  4.660257E-01
  4.705018E-01
  4.777295E-01
  4.836288E-01
  4.808949E-01
  4.679028E-01
  4.639693E-01
  4.662999E-01
  4.699935E-01
  4.715549E-01
  4.764023E-01
  4.785979E-01
  4.776466E-01
  4.679572E-01
  4.607016E-01
  4.596506E-01
  4.632547E-01
  4.619778E-01
  4.614259E-01
  4.659100E-01
  4.770513E-01
  4.833618E-01
  4.745537E-01
  4.621133E-01
  4.602376E-01
  4.639319E-01
  4.670112E-01
  4.682130E-01
  4.691727E-01
  4.715376E-01
  4.746857E-01
  4.744319E-01
  4.702290E-01
  4.661899E-01
  4.671691E-01
  4.704404E-01
  4.716856E-01
  4.702660E-01
  4.692608E-01
  4.691557E-01
  4.691805E-01
  4.700427E-01
  4.720967E-01
  4.706725E-01
  4.666140E-01
  4.637754E-01
  4.628704E-01
  4.632192E-01
  4.654470E-01
  4.669112E-01
  4.676832E-01
  4.689582E-01
  4.687063E-01
  4.657918E-01
  4.653343E-01
  4.664623E-01
  4.662538E-01
  4.684321E-01
  4.727121E-01
  4.689512E-01
  4.614908E-01
  4.612141E-01
  4.639254E-01
  4.641703E-01
  4.664743E-01
  4.690447E-01
  4.714232E-01
  4.744983E-01
  4.726547E-01
  4.649628E-01
  4.619497E-01
  4.673774E-01
  4.754996E-01
  4.793887E-01
  4.796952E-01
  4.795361E-01
  4.771008E-01
  4.684543E-01
  4.611048E-01
  4.620955E-01
  4.650883E-01
  4.630384E-01
  4.592548E-01
  4.691401E-01
  4.745884E-01
  4.801673E-01
  4.689489E-01
  4.621767E-01
  4.614678E-01
  4.670465E-01
  4.641031E-01
  4.677056E-01
  4.692072E-01
  4.744510E-01
  4.714432E-01
  4.715300E-01
  4.678774E-01
  4.701775E-01
  4.692540E-01
  4.737577E-01
  4.705652E-01
  4.694716E-01
  4.659733E-01
  4.716694E-01
  4.717665E-01
  4.727603E-01
  4.685422E-01
  4.699157E-01
  4.656368E-01
  4.657878E-01
  4.612250E-01
  4.618949E-01
  4.614670E-01
  4.685735E-01
  4.672400E-01
  4.675456E-01
  4.656710E-01
  4.706059E-01
  4.678274E-01
  4.658671E-01
  4.607263E-01
  4.669133E-01
  4.692814E-01
  4.685605E-01
  4.605793E-01
  4.648318E-01
  4.675173E-01
  4.717608E-01
  4.688265E-01
  4.675890E-01
  4.615217E-01
  4.660258E-01
  4.667268E-01
  4.667145E-01
  4.613858E-01
  4.665818E-01
  4.694562E-01
  4.733185E-01
  4.710988E-01
  4.766007E-01
  4.739753E-01
  4.690180E-01
  4.608666E-01
  4.624597E-01
  4.573442E-01
  4.572853E-01
  4.659694E-01
  4.740738E-01
  4.711689E-01
  4.769209E-01
  4.682667E-01
  4.658310E-01
  4.583129E-01
  4.609278E-01
  4.570174E-01
  4.656518E-01
  4.647369E-01
  4.703480E-01
  4.678281E-01
  4.732015E-01
  4.669135E-01
  4.692911E-01
  4.649647E-01
  4.717300E-01
  4.709653E-01
  4.760705E-01
  4.691682E-01
  4.727258E-01
  4.676617E-01
  4.681045E-01
  4.606681E-01
  4.660475E-01
  4.648463E-01
  4.712702E-01
  4.637069E-01
  4.633707E-01
  4.635644E-01
  4.780646E-01
  4.738234E-01
  4.690700E-01
  4.596671E-01
  4.664815E-01
  4.647156E-01
  4.671419E-01
  4.611619E-01
  4.709580E-01
  4.711684E-01
  4.674811E-01
  4.544740E-01
  4.660749E-01
  4.743791E-01
  4.825728E-01
  4.742112E-01
  4.690656E-01
  4.563905E-01
  4.640150E-01
  4.675393E-01
  4.709188E-01
  4.604181E-01
  4.648918E-01
  4.651032E-01
  4.699438E-01
  4.643026E-01
  4.701419E-01
  4.653691E-01
  4.678644E-01
  4.649881E-01
  4.702289E-01
  4.619964E-01
  4.651882E-01
  4.691988E-01
  4.728151E-01
  4.683641E-01
  4.694072E-01
  4.653931E-01
  4.639347E-01
  4.610884E-01
  4.614112E-01
  4.579422E-01
  4.627369E-01
  4.653563E-01
  4.692640E-01
  4.669206E-01
  4.670838E-01
  4.642624E-01
  4.662408E-01
  4.643142E-01
  4.684982E-01
  4.713844E-01
  4.750597E-01
  4.706653E-01
  4.714842E-01
  4.682070E-01
  4.618369E-01
  4.511870E-01
  4.538370E-01
  4.591185E-01
  4.674289E-01
  4.664287E-01
  4.637430E-01
  4.631941E-01
  4.752452E-01
  4.749131E-01
  4.659947E-01
  4.591669E-01
  4.678440E-01
  4.715570E-01
  4.716894E-01
  4.673797E-01
  4.702756E-01
  4.678192E-01
  4.636796E-01
  4.568150E-01
  4.632401E-01
  4.714703E-01
  4.801524E-01
  4.783390E-01
  4.723538E-01
  4.610652E-01
  4.638019E-01
  4.678422E-01
  4.687100E-01
  4.629254E-01
  4.651083E-01
  4.631893E-01
  4.616432E-01
  4.595434E-01
  4.655419E-01
  4.653039E-01
  4.693236E-01
  4.723269E-01
  4.733553E-01
  4.647920E-01
  4.655938E-01
  4.699641E-01
  4.657078E-01
  4.660108E-01
  4.675044E-01
  4.681907E-01
  4.667296E-01
  4.682060E-01
  4.666257E-01
  4.645935E-01
  4.641011E-01
  4.672017E-01
  4.685975E-01
  4.699981E-01
  4.665066E-01
  4.636054E-01
  4.645948E-01
  4.697153E-01
  4.730796E-01
  4.779640E-01
  4.780387E-01
  4.735639E-01
  4.695222E-01
  4.709826E-01
  4.665273E-01
  4.592133E-01
  4.558633E-01
  4.611384E-01
  4.684321E-01
  4.719802E-01
  4.663651E-01
  4.676140E-01
  4.771550E-01
  4.808459E-01
  4.705678E-01
  4.631919E-01
  4.651076E-01
  4.730611E-01
  4.744529E-01
  4.716680E-01
  4.707324E-01
  4.737464E-01
  4.687355E-01
  4.624356E-01
  4.639778E-01
  4.720049E-01
  4.749186E-01
  4.764539E-01
  4.727774E-01
  4.668688E-01
  4.652992E-01
  4.688143E-01
  4.663732E-01
  4.647684E-01
  4.664156E-01
  4.690372E-01
  4.665273E-01
  4.652133E-01
  4.631391E-01
  4.628665E-01
  4.678315E-01
  4.763471E-01
  4.758930E-01
  4.736065E-01
  4.718582E-01
  4.604857E-01
  4.600312E-01
  4.631380E-01
  4.698930E-01
  4.698045E-01
  4.727456E-01
  4.761227E-01
  4.777397E-01
  4.703684E-01
  4.682038E-01
  4.696287E-01
  4.736629E-01
  4.698024E-01
  4.662631E-01
  4.657841E-01
  4.739907E-01
  4.779120E-01
  4.805152E-01
  4.795689E-01
  4.789175E-01
  4.711048E-01
  4.685114E-01
  4.702548E-01
  4.717216E-01
  4.647285E-01
  4.631213E-01
  4.632797E-01
  4.688816E-01
  4.712051E-01
  4.696498E-01
  4.661990E-01
  4.733537E-01
  4.759359E-01
  4.732173E-01
  4.688704E-01
  4.738234E-01
  4.767278E-01
  4.756678E-01
  4.684785E-01
  4.676579E-01
  4.682630E-01
  4.708232E-01
  4.673769E-01
  4.659309E-01
  4.646376E-01
  4.678450E-01
  4.697370E-01
  4.727161E-01
  4.690037E-01
  4.693968E-01
  4.694915E-01
  4.694235E-01
  4.659023E-01
  4.671522E-01
  4.672101E-01
  4.705326E-01
  4.702218E-01
  4.688374E-01
  4.634976E-01
  4.657668E-01
  4.664325E-01
  4.650164E-01
  4.624135E-01
  4.644597E-01
  4.610189E-01
  4.598348E-01
  4.646963E-01
  4.742712E-01
  4.723729E-01
  4.714055E-01
  4.691894E-01
  4.716586E-01
  4.695748E-01
  4.717035E-01
  4.710373E-01
  4.735049E-01
  4.705935E-01
  4.705370E-01
  4.683779E-01
  4.722664E-01
  4.703669E-01
  4.709512E-01
  4.720758E-01
  4.769866E-01
  4.696345E-01
  4.641411E-01
  4.631094E-01
  4.693041E-01
  4.691389E-01
  4.716083E-01
  4.697915E-01
  4.720562E-01
  4.698625E-01
  4.689877E-01
  4.669492E-01
  4.733451E-01
  4.746640E-01
  4.751134E-01
  4.696097E-01
  4.710666E-01
  4.719290E-01
  4.722067E-01
  4.649410E-01
  4.661317E-01
  4.668161E-01
  4.687265E-01
  4.661193E-01
  4.686893E-01
  4.661052E-01
  4.646445E-01
  4.609275E-01
  4.637844E-01
  4.635938E-01
  4.697889E-01
  4.729811E-01
  4.741919E-01
  4.667560E-01
  4.656740E-01
  4.684468E-01
  4.784659E-01
  4.784777E-01
  4.734982E-01
  4.636829E-01
  4.633392E-01
  4.610142E-01
  4.616874E-01
  4.629026E-01
  4.675492E-01
  4.615268E-01
  4.606170E-01
  4.659081E-01
  4.709197E-01
  4.691801E-01
  4.650652E-01
  4.666848E-01
  4.697457E-01
  4.709168E-01
  4.703042E-01
  4.712741E-01
  4.715604E-01
  4.697274E-01
  4.669507E-01
  4.674850E-01
  4.669090E-01
  4.631565E-01
  4.607412E-01
  4.656496E-01
  4.707094E-01
  4.690671E-01
  4.639461E-01
  4.633183E-01
  4.635611E-01
  4.645411E-01
  4.679137E-01
  4.712234E-01
  4.706803E-01
  4.697869E-01
  4.668680E-01
  4.633158E-01
  4.623823E-01
  4.649191E-01
  4.659877E-01
  4.671482E-01
  4.706036E-01
  4.738445E-01
  4.702073E-01
  4.653692E-01
  4.620197E-01
  4.588202E-01
  4.601051E-01
  4.682924E-01
  4.712895E-01
  4.678004E-01
  4.628406E-01
  4.598516E-01
  4.597212E-01
  4.643291E-01
  4.702806E-01
  4.742550E-01
  4.725607E-01
  4.688495E-01
  4.659185E-01
  4.680234E-01
  4.734441E-01
  4.768267E-01
  4.738640E-01
  4.689598E-01
  4.659900E-01
  4.664184E-01
  4.655124E-01
  4.642760E-01
  4.631253E-01
  4.643316E-01
  4.620055E-01
  4.634865E-01
  4.671123E-01
  4.677097E-01
  4.669932E-01
  4.690242E-01
  4.696593E-01
  4.686085E-01
  4.671891E-01
  4.666746E-01
  4.675914E-01
  4.699117E-01
  4.689256E-01
  4.656103E-01
  4.635772E-01
  4.636390E-01
  4.655690E-01
  4.719078E-01
  4.763465E-01
  4.737948E-01
  4.683437E-01
  4.659972E-01
  4.647668E-01
  4.647960E-01
  4.679530E-01
  4.740488E-01
  4.768648E-01
  4.745704E-01
  4.696905E-01
  4.662602E-01
  4.648788E-01
  4.656007E-01
  4.650396E-01
  4.632160E-01
  4.636828E-01
  4.680055E-01
  4.695318E-01
  4.681195E-01
  4.660053E-01
  4.616030E-01
  4.586674E-01
  4.652399E-01
  4.732280E-01
  4.744247E-01
  4.704720E-01
  4.664283E-01
  4.655758E-01
  4.702709E-01
  4.746497E-01
  4.733308E-01
  4.676914E-01
  4.649592E-01
  4.659723E-01
  4.692531E-01
  4.724895E-01
  4.740324E-01
  4.716301E-01
  4.679753E-01
  4.678270E-01
  4.733987E-01
  4.761827E-01
  4.721373E-01
  4.668979E-01
  4.631354E-01
  4.660146E-01
  4.626330E-01
  4.656464E-01
  4.660509E-01
  4.709458E-01
  4.736313E-01
  4.725784E-01
  4.641745E-01
  4.648117E-01
  4.667523E-01
  4.710374E-01
  4.687006E-01
  4.664208E-01
  4.631144E-01
  4.682834E-01
  4.713856E-01
  4.762263E-01
  4.768659E-01
  4.782222E-01
  4.732389E-01
  4.715268E-01
  4.674822E-01
  4.649488E-01
  4.589697E-01
  4.626062E-01
  4.689314E-01
  4.753456E-01
  4.728791E-01
  4.712195E-01
  4.656613E-01
  4.661986E-01
  4.658847E-01
  4.671650E-01
  4.653373E-01
  4.688600E-01
  4.684213E-01
  4.691032E-01
  4.669267E-01
  4.670818E-01
  4.603152E-01
  4.601764E-01
  4.637148E-01
  4.680282E-01
  4.659987E-01
  4.704395E-01
  4.713164E-01
  4.731109E-01
  4.732843E-01
  4.753657E-01
  4.682610E-01
  4.634975E-01
  4.611301E-01
  4.643101E-01
  4.620507E-01
  4.639952E-01
  4.664175E-01
  4.721105E-01
  4.704514E-01
  4.707865E-01
  4.713118E-01
  4.724602E-01
  4.629419E-01
  4.605637E-01
  4.679816E-01
  4.700526E-01
  4.668396E-01
  4.708400E-01
  4.703180E-01
  4.714274E-01
  4.679350E-01
  4.642422E-01
  4.590449E-01
  4.647219E-01
  4.671656E-01
  4.696473E-01
  4.678591E-01
  4.671553E-01
  4.619933E-01
  4.658987E-01
  4.694709E-01
  4.737866E-01
  4.727907E-01
  4.749280E-01
  4.713264E-01
  4.697930E-01
  4.656083E-01
  4.657137E-01
  4.615493E-01
  4.627766E-01
  4.649373E-01
  4.703898E-01
  4.683556E-01
  4.686122E-01
  4.668823E-01
  4.716407E-01
  4.729886E-01
  4.732995E-01
  4.672228E-01
  4.664949E-01
  4.648662E-01
  4.667396E-01
  4.648257E-01
  4.691070E-01
  4.691431E-01
  4.686809E-01
  4.647615E-01
  4.650583E-01
  4.622596E-01
  4.672310E-01
  4.689567E-01
  4.693663E-01
  4.663273E-01
  4.684183E-01
  4.640092E-01
  4.626807E-01
  4.615692E-01
  4.651027E-01
  4.636016E-01
  4.661145E-01
  4.666302E-01
  4.706700E-01
  4.702674E-01
  4.723707E-01
  4.700482E-01
  4.692556E-01
  4.630529E-01
  4.650749E-01
  4.667288E-01
  4.684953E-01
  4.666180E-01
  4.686777E-01
  4.688258E-01
  4.688312E-01
  4.682868E-01
  4.668926E-01
  4.641386E-01
  4.655434E-01
  4.658697E-01
  4.660560E-01
  4.647583E-01
  4.640299E-01
  4.633200E-01
  4.661459E-01
  4.675395E-01
  4.669069E-01
  4.642114E-01
  4.662934E-01
  4.694228E-01
  4.711014E-01
  4.687765E-01
  4.671511E-01
  4.644128E-01
  4.623880E-01
  4.591998E-01
  4.600236E-01
  4.642198E-01
  4.678916E-01
  4.653499E-01
  4.664917E-01
  4.694596E-01
  4.689496E-01
  4.656894E-01
  4.678639E-01
  4.689943E-01
  4.668999E-01
  4.637843E-01
  4.664156E-01
  4.689784E-01
  4.715037E-01
  4.712509E-01
  4.666579E-01
  4.603879E-01
  4.638835E-01
  4.679702E-01
  4.660991E-01
  4.623809E-01
  4.627068E-01
  4.606168E-01
  4.615112E-01
  4.662128E-01
  4.707209E-01
  4.690884E-01
  4.677265E-01
  4.668470E-01
  4.686776E-01
  4.706050E-01
  4.712716E-01
  4.665102E-01
  4.620315E-01
  4.585298E-01
  4.615308E-01
  4.725082E-01
  4.678875E-01
  4.650997E-01
  4.637878E-01
  4.667686E-01
  4.673663E-01
  4.692028E-01
  4.689209E-01
  4.706937E-01
  4.667571E-01
  4.628067E-01
  4.610206E-01
  4.656711E-01
  4.666563E-01
  4.676323E-01
  4.680725E-01
  4.705629E-01
  4.663249E-01
  4.645753E-01
  4.677819E-01
  4.754236E-01
  4.747549E-01
  4.709364E-01
  4.673606E-01
  4.699678E-01
  4.663786E-01
  4.600138E-01
  4.578533E-01
  4.661680E-01
  4.689174E-01
  4.670803E-01
  4.653470E-01
  4.696355E-01
  4.675092E-01
  4.634954E-01
  4.622270E-01
  4.677864E-01
  4.663993E-01
  4.638616E-01
  4.660302E-01
  4.728007E-01
  4.708030E-01
  4.694101E-01
  4.676062E-01
  4.676660E-01
  4.680466E-01
  4.700625E-01
  4.642832E-01
  4.619387E-01
  4.620864E-01
  4.628664E-01
  4.615410E-01
  4.673531E-01
  4.727020E-01
  4.770194E-01
  4.748047E-01
  4.706842E-01
  4.635173E-01
  4.627509E-01
  4.622649E-01
  4.620402E-01
  4.614423E-01
  4.671341E-01
  4.705937E-01
  4.773562E-01
  4.727226E-01
  4.684208E-01
  4.628280E-01
  4.649908E-01
  4.657016E-01
  4.699834E-01
  4.706499E-01
  4.725506E-01
  4.664006E-01
  4.648901E-01
  4.647975E-01
  4.662602E-01
  4.623123E-01
  4.679094E-01
  4.746069E-01
  4.802462E-01
  4.734613E-01
  4.685275E-01
  4.679809E-01
  4.759719E-01
  4.755170E-01
  4.704251E-01
  4.614886E-01
  4.632681E-01
  4.626398E-01
  4.599245E-01
  4.577875E-01
  4.674612E-01
  4.672712E-01
  4.603588E-01
  4.555177E-01
  4.640123E-01
  4.675694E-01
  4.701723E-01
  4.707910E-01
  4.740556E-01
  4.670603E-01
  4.631318E-01
  4.627429E-01
  4.666516E-01
  4.639005E-01
  4.657465E-01
  4.643273E-01
  4.669658E-01
  4.691727E-01
  4.710465E-01
  4.629042E-01
  4.617174E-01
  4.634274E-01
  4.670853E-01
  4.645979E-01
  4.683057E-01
  4.705237E-01
  4.735361E-01
  4.691248E-01
  4.662882E-01
  4.607128E-01
  4.607589E-01
  4.577122E-01
  4.580764E-01
  4.594878E-01
  4.689476E-01
  4.735271E-01
  4.816281E-01
  4.757186E-01
  4.708867E-01
  4.675877E-01
  4.681501E-01
  4.661841E-01
  4.624864E-01
  4.612613E-01
  4.659189E-01
  4.668351E-01
  4.664082E-01
  4.666592E-01
  4.658039E-01
  4.616094E-01
  4.632463E-01
  4.701446E-01
  4.766815E-01
  4.739946E-01
  4.692551E-01
  4.678392E-01
  4.705115E-01
  4.698518E-01
  4.651992E-01
  4.595077E-01
  4.615015E-01
  4.640387E-01
  4.638263E-01
  4.652836E-01
  4.711125E-01
  4.686226E-01
  4.612706E-01
  4.600342E-01
  4.690153E-01
  4.755472E-01
  4.756961E-01
  4.718368E-01
  4.701290E-01
  4.660930E-01
  4.635801E-01
  4.656208E-01
  4.681051E-01
  4.632141E-01
  4.619196E-01
  4.666306E-01
  4.733385E-01
  4.745038E-01
  4.692217E-01
  4.594304E-01
  4.576309E-01
  4.638536E-01
  4.709447E-01
  4.701399E-01
  4.679220E-01
  4.687047E-01
  4.718499E-01
  4.686567E-01
  4.637480E-01
  4.611814E-01
  4.626733E-01
  4.621830E-01
  4.618240E-01
  4.656084E-01
  4.764640E-01
  4.826327E-01
  4.746376E-01
  4.727960E-01
  4.677750E-01
  4.664764E-01
  4.668272E-01
  4.669942E-01
  4.621709E-01
  4.611996E-01
  4.637755E-01
  4.676610E-01
  4.677753E-01
  4.680071E-01
  4.626977E-01
  4.585305E-01
  4.588633E-01
  4.644148E-01
  4.672674E-01
  4.685267E-01
  4.653292E-01
  4.631588E-01
  4.624427E-01
  4.666401E-01
  4.669849E-01
  4.645039E-01
  4.622526E-01
  4.641427E-01
  4.628806E-01
  4.650222E-01
  4.697981E-01
  4.710848E-01
  4.645204E-01
  4.646029E-01
  4.696399E-01
  4.748767E-01
  4.747712E-01
  4.727100E-01
  4.669376E-01
  4.645172E-01
  4.644234E-01
  4.666956E-01
  4.646419E-01
  4.638197E-01
  4.651150E-01
  4.699434E-01
  4.730560E-01
  4.746068E-01
  4.682271E-01
  4.615963E-01
  4.586067E-01
  4.632712E-01
  4.680659E-01
  4.698896E-01
  4.668397E-01
  4.681625E-01
  4.680571E-01
  4.638434E-01
  4.595909E-01
  4.654541E-01
  4.710061E-01
  4.716285E-01
  4.667977E-01
  4.662156E-01
  4.692924E-01
  4.745260E-01
  4.723715E-01
  4.693493E-01
  4.681241E-01
  4.659419E-01
  4.685821E-01
  4.675821E-01
  4.647338E-01
  4.608976E-01
  4.640422E-01
  4.646563E-01
  4.647729E-01
  4.629091E-01
  4.642964E-01
  4.627235E-01
  4.622640E-01
  4.593982E-01
  4.601323E-01
  4.611603E-01
  4.650490E-01
  4.627210E-01
  4.615213E-01
  4.642154E-01
  4.717422E-01
  4.729203E-01
  4.736406E-01
  4.700747E-01
  4.673917E-01
  4.658344E-01
  4.697886E-01
  4.695128E-01
  4.704669E-01
  4.716717E-01
  4.753844E-01
  4.739773E-01
  4.710130E-01
  4.627332E-01
  4.603257E-01
  4.624869E-01
  4.673786E-01
  4.682146E-01
  4.706325E-01
  4.673166E-01
  4.662023E-01
  4.686255E-01
  4.739684E-01
  4.701741E-01
  4.652523E-01
  4.611975E-01
  4.612592E-01
  4.598584E-01
  4.635947E-01
  4.641072E-01
  4.640297E-01
  4.655451E-01
  4.714836E-01
  4.686713E-01
  4.668239E-01
  4.687700E-01
  4.742320E-01
  4.744704E-01
  4.741842E-01
  4.701816E-01
  4.708500E-01
  4.713277E-01
  4.672615E-01
  4.662909E-01
  4.703069E-01
  4.646900E-01
  4.667273E-01
  4.644583E-01
  4.706444E-01
  4.662399E-01
  4.646049E-01
  4.564965E-01
  4.613277E-01
  4.623029E-01
  4.681664E-01
  4.654568E-01
  4.716540E-01
  4.673433E-01
  4.654321E-01
  4.593422E-01
  4.642898E-01
  4.585676E-01
  4.598439E-01
  4.624277E-01
  4.749879E-01
  4.727641E-01
  4.729550E-01
  4.663455E-01
  4.682736E-01
  4.660839E-01
  4.727890E-01
  4.678012E-01
  4.672617E-01
  4.637327E-01
  4.703324E-01
  4.677357E-01
  4.699055E-01
  4.631609E-01
  4.658359E-01
  4.648792E-01
  4.687316E-01
  4.621935E-01
  4.659802E-01
  4.650655E-01
  4.691042E-01
  4.646775E-01
  4.676834E-01
  4.611908E-01
  4.626838E-01
  4.618478E-01
  4.666447E-01