# vtk DataFile Version 2.0
title
ASCII
DATASET STRUCTURED_GRID
DIMENSIONS   64   64    1
POINTS   4096  float
  0.000000E+00  0.000000E+00  0.000000E+00
  0.000000E+00  3.906250E-01  0.000000E+00
  0.000000E+00  7.812500E-01  0.000000E+00
  0.000000E+00  1.171875E+00  0.000000E+00
  0.000000E+00  1.562500E+00  0.000000E+00
  0.000000E+00  1.953125E+00  0.000000E+00
  0.000000E+00  2.343750E+00  0.000000E+00
  0.000000E+00  2.734375E+00  0.000000E+00
  0.000000E+00  3.125000E+00  0.000000E+00
  0.000000E+00  3.515625E+00  0.000000E+00
  0.000000E+00  3.906250E+00  0.000000E+00
  0.000000E+00  4.296875E+00  0.000000E+00
  0.000000E+00  4.687500E+00  0.000000E+00
  0.000000E+00  5.078125E+00  0.000000E+00
  0.000000E+00  5.468750E+00  0.000000E+00
  0.000000E+00  5.859375E+00  0.000000E+00
  0.000000E+00  6.250000E+00  0.000000E+00
  0.000000E+00  6.640625E+00  0.000000E+00
  0.000000E+00  7.031250E+00  0.000000E+00
  0.000000E+00  7.421875E+00  0.000000E+00
  0.000000E+00  7.812500E+00  0.000000E+00
  0.000000E+00  8.203125E+00  0.000000E+00
  0.000000E+00  8.593750E+00  0.000000E+00
  0.000000E+00  8.984375E+00  0.000000E+00
  0.000000E+00  9.375000E+00  0.000000E+00
  0.000000E+00  9.765625E+00  0.000000E+00
  0.000000E+00  1.015625E+01  0.000000E+00
  0.000000E+00  1.054688E+01  0.000000E+00
  0.000000E+00  1.093750E+01  0.000000E+00
  0.000000E+00  1.132812E+01  0.000000E+00
  0.000000E+00  1.171875E+01  0.000000E+00
  0.000000E+00  1.210938E+01  0.000000E+00
  0.000000E+00  1.250000E+01  0.000000E+00
  0.000000E+00  1.289062E+01  0.000000E+00
  0.000000E+00  1.328125E+01  0.000000E+00
  0.000000E+00  1.367188E+01  0.000000E+00
  0.000000E+00  1.406250E+01  0.000000E+00
  0.000000E+00  1.445312E+01  0.000000E+00
  0.000000E+00  1.484375E+01  0.000000E+00
  0.000000E+00  1.523438E+01  0.000000E+00
  0.000000E+00  1.562500E+01  0.000000E+00
  0.000000E+00  1.601562E+01  0.000000E+00
  0.000000E+00  1.640625E+01  0.000000E+00
  0.000000E+00  1.679688E+01  0.000000E+00
  0.000000E+00  1.718750E+01  0.000000E+00
  0.000000E+00  1.757812E+01  0.000000E+00
  0.000000E+00  1.796875E+01  0.000000E+00
  0.000000E+00  1.835938E+01  0.000000E+00
  0.000000E+00  1.875000E+01  0.000000E+00
  0.000000E+00  1.914062E+01  0.000000E+00
  0.000000E+00  1.953125E+01  0.000000E+00
  0.000000E+00  1.992188E+01  0.000000E+00
  0.000000E+00  2.031250E+01  0.000000E+00
  0.000000E+00  2.070312E+01  0.000000E+00
  0.000000E+00  2.109375E+01  0.000000E+00
  0.000000E+00  2.148438E+01  0.000000E+00
  0.000000E+00  2.187500E+01  0.000000E+00
  0.000000E+00  2.226562E+01  0.000000E+00
  0.000000E+00  2.265625E+01  0.000000E+00
  0.000000E+00  2.304688E+01  0.000000E+00
  0.000000E+00  2.343750E+01  0.000000E+00
  0.000000E+00  2.382812E+01  0.000000E+00
  0.000000E+00  2.421875E+01  0.000000E+00
  0.000000E+00  2.460938E+01  0.000000E+00
  3.906250E-01  0.000000E+00  0.000000E+00
  3.906250E-01  3.906250E-01  0.000000E+00
  3.906250E-01  7.812500E-01  0.000000E+00
  3.906250E-01  1.171875E+00  0.000000E+00
  3.906250E-01  1.562500E+00  0.000000E+00
  3.906250E-01  1.953125E+00  0.000000E+00
  3.906250E-01  2.343750E+00  0.000000E+00
  3.906250E-01  2.734375E+00  0.000000E+00
  3.906250E-01  3.125000E+00  0.000000E+00
  3.906250E-01  3.515625E+00  0.000000E+00
  3.906250E-01  3.906250E+00  0.000000E+00
  3.906250E-01  4.296875E+00  0.000000E+00
  3.906250E-01  4.687500E+00  0.000000E+00
  3.906250E-01  5.078125E+00  0.000000E+00
  3.906250E-01  5.468750E+00  0.000000E+00
  3.906250E-01  5.859375E+00  0.000000E+00
  3.906250E-01  6.250000E+00  0.000000E+00
  3.906250E-01  6.640625E+00  0.000000E+00
  3.906250E-01  7.031250E+00  0.000000E+00
  3.906250E-01  7.421875E+00  0.000000E+00
  3.906250E-01  7.812500E+00  0.000000E+00
  3.906250E-01  8.203125E+00  0.000000E+00
  3.906250E-01  8.593750E+00  0.000000E+00
  3.906250E-01  8.984375E+00  0.000000E+00
  3.906250E-01  9.375000E+00  0.000000E+00
  3.906250E-01  9.765625E+00  0.000000E+00
  3.906250E-01  1.015625E+01  0.000000E+00
  3.906250E-01  1.054688E+01  0.000000E+00
  3.906250E-01  1.093750E+01  0.000000E+00
  3.906250E-01  1.132812E+01  0.000000E+00
  3.906250E-01  1.171875E+01  0.000000E+00
  3.906250E-01  1.210938E+01  0.000000E+00
  3.906250E-01  1.250000E+01  0.000000E+00
  3.906250E-01  1.289062E+01  0.000000E+00
  3.906250E-01  1.328125E+01  0.000000E+00
  3.906250E-01  1.367188E+01  0.000000E+00
  3.906250E-01  1.406250E+01  0.000000E+00
  3.906250E-01  1.445312E+01  0.000000E+00
  3.906250E-01  1.484375E+01  0.000000E+00
  3.906250E-01  1.523438E+01  0.000000E+00
  3.906250E-01  1.562500E+01  0.000000E+00
  3.906250E-01  1.601562E+01  0.000000E+00
  3.906250E-01  1.640625E+01  0.000000E+00
  3.906250E-01  1.679688E+01  0.000000E+00
  3.906250E-01  1.718750E+01  0.000000E+00
  3.906250E-01  1.757812E+01  0.000000E+00
  3.906250E-01  1.796875E+01  0.000000E+00
  3.906250E-01  1.835938E+01  0.000000E+00
  3.906250E-01  1.875000E+01  0.000000E+00
  3.906250E-01  1.914062E+01  0.000000E+00
  3.906250E-01  1.953125E+01  0.000000E+00
  3.906250E-01  1.992188E+01  0.000000E+00
  3.906250E-01  2.031250E+01  0.000000E+00
  3.906250E-01  2.070312E+01  0.000000E+00
  3.906250E-01  2.109375E+01  0.000000E+00
  3.906250E-01  2.148438E+01  0.000000E+00
  3.906250E-01  2.187500E+01  0.000000E+00
  3.906250E-01  2.226562E+01  0.000000E+00
  3.906250E-01  2.265625E+01  0.000000E+00
  3.906250E-01  2.304688E+01  0.000000E+00
  3.906250E-01  2.343750E+01  0.000000E+00
  3.906250E-01  2.382812E+01  0.000000E+00
  3.906250E-01  2.421875E+01  0.000000E+00
  3.906250E-01  2.460938E+01  0.000000E+00
  7.812500E-01  0.000000E+00  0.000000E+00
  7.812500E-01  3.906250E-01  0.000000E+00
  7.812500E-01  7.812500E-01  0.000000E+00
  7.812500E-01  1.171875E+00  0.000000E+00
  7.812500E-01  1.562500E+00  0.000000E+00
  7.812500E-01  1.953125E+00  0.000000E+00
  7.812500E-01  2.343750E+00  0.000000E+00
  7.812500E-01  2.734375E+00  0.000000E+00
  7.812500E-01  3.125000E+00  0.000000E+00
  7.812500E-01  3.515625E+00  0.000000E+00
  7.812500E-01  3.906250E+00  0.000000E+00
  7.812500E-01  4.296875E+00  0.000000E+00
  7.812500E-01  4.687500E+00  0.000000E+00
  7.812500E-01  5.078125E+00  0.000000E+00
  7.812500E-01  5.468750E+00  0.000000E+00
  7.812500E-01  5.859375E+00  0.000000E+00
  7.812500E-01  6.250000E+00  0.000000E+00
  7.812500E-01  6.640625E+00  0.000000E+00
  7.812500E-01  7.031250E+00  0.000000E+00
  7.812500E-01  7.421875E+00  0.000000E+00
  7.812500E-01  7.812500E+00  0.000000E+00
  7.812500E-01  8.203125E+00  0.000000E+00
  7.812500E-01  8.593750E+00  0.000000E+00
  7.812500E-01  8.984375E+00  0.000000E+00
  7.812500E-01  9.375000E+00  0.000000E+00
  7.812500E-01  9.765625E+00  0.000000E+00
  7.812500E-01  1.015625E+01  0.000000E+00
  7.812500E-01  1.054688E+01  0.000000E+00
  7.812500E-01  1.093750E+01  0.000000E+00
  7.812500E-01  1.132812E+01  0.000000E+00
  7.812500E-01  1.171875E+01  0.000000E+00
  7.812500E-01  1.210938E+01  0.000000E+00
  7.812500E-01  1.250000E+01  0.000000E+00
  7.812500E-01  1.289062E+01  0.000000E+00
  7.812500E-01  1.328125E+01  0.000000E+00
  7.812500E-01  1.367188E+01  0.000000E+00
  7.812500E-01  1.406250E+01  0.000000E+00
  7.812500E-01  1.445312E+01  0.000000E+00
  7.812500E-01  1.484375E+01  0.000000E+00
  7.812500E-01  1.523438E+01  0.000000E+00
  7.812500E-01  1.562500E+01  0.000000E+00
  7.812500E-01  1.601562E+01  0.000000E+00
  7.812500E-01  1.640625E+01  0.000000E+00
  7.812500E-01  1.679688E+01  0.000000E+00
  7.812500E-01  1.718750E+01  0.000000E+00
  7.812500E-01  1.757812E+01  0.000000E+00
  7.812500E-01  1.796875E+01  0.000000E+00
  7.812500E-01  1.835938E+01  0.000000E+00
  7.812500E-01  1.875000E+01  0.000000E+00
  7.812500E-01  1.914062E+01  0.000000E+00
  7.812500E-01  1.953125E+01  0.000000E+00
  7.812500E-01  1.992188E+01  0.000000E+00
  7.812500E-01  2.031250E+01  0.000000E+00
  7.812500E-01  2.070312E+01  0.000000E+00
  7.812500E-01  2.109375E+01  0.000000E+00
  7.812500E-01  2.148438E+01  0.000000E+00
  7.812500E-01  2.187500E+01  0.000000E+00
  7.812500E-01  2.226562E+01  0.000000E+00
  7.812500E-01  2.265625E+01  0.000000E+00
  7.812500E-01  2.304688E+01  0.000000E+00
  7.812500E-01  2.343750E+01  0.000000E+00
  7.812500E-01  2.382812E+01  0.000000E+00
  7.812500E-01  2.421875E+01  0.000000E+00
  7.812500E-01  2.460938E+01  0.000000E+00
  1.171875E+00  0.000000E+00  0.000000E+00
  1.171875E+00  3.906250E-01  0.000000E+00
  1.171875E+00  7.812500E-01  0.000000E+00
  1.171875E+00  1.171875E+00  0.000000E+00
  1.171875E+00  1.562500E+00  0.000000E+00
  1.171875E+00  1.953125E+00  0.000000E+00
  1.171875E+00  2.343750E+00  0.000000E+00
  1.171875E+00  2.734375E+00  0.000000E+00
  1.171875E+00  3.125000E+00  0.000000E+00
  1.171875E+00  3.515625E+00  0.000000E+00
  1.171875E+00  3.906250E+00  0.000000E+00
  1.171875E+00  4.296875E+00  0.000000E+00
  1.171875E+00  4.687500E+00  0.000000E+00
  1.171875E+00  5.078125E+00  0.000000E+00
  1.171875E+00  5.468750E+00  0.000000E+00
  1.171875E+00  5.859375E+00  0.000000E+00
  1.171875E+00  6.250000E+00  0.000000E+00
  1.171875E+00  6.640625E+00  0.000000E+00
  1.171875E+00  7.031250E+00  0.000000E+00
  1.171875E+00  7.421875E+00  0.000000E+00
  1.171875E+00  7.812500E+00  0.000000E+00
  1.171875E+00  8.203125E+00  0.000000E+00
  1.171875E+00  8.593750E+00  0.000000E+00
  1.171875E+00  8.984375E+00  0.000000E+00
  1.171875E+00  9.375000E+00  0.000000E+00
  1.171875E+00  9.765625E+00  0.000000E+00
  1.171875E+00  1.015625E+01  0.000000E+00
  1.171875E+00  1.054688E+01  0.000000E+00
  1.171875E+00  1.093750E+01  0.000000E+00
  1.171875E+00  1.132812E+01  0.000000E+00
  1.171875E+00  1.171875E+01  0.000000E+00
  1.171875E+00  1.210938E+01  0.000000E+00
  1.171875E+00  1.250000E+01  0.000000E+00
  1.171875E+00  1.289062E+01  0.000000E+00
  1.171875E+00  1.328125E+01  0.000000E+00
  1.171875E+00  1.367188E+01  0.000000E+00
  1.171875E+00  1.406250E+01  0.000000E+00
  1.171875E+00  1.445312E+01  0.000000E+00
[...]
POINT_DATA   4096
SCALARS CON  float  1
LOOKUP_TABLE default
  4.705968E-01
  4.692970E-01
  4.748641E-01
  4.734721E-01
  4.737000E-01
  4.670229E-01
  4.679327E-01
  4.673545E-01
  4.732328E-01
  4.715078E-01
  4.720428E-01
  4.666241E-01
  4.679712E-01
  4.654716E-01
  4.684515E-01
  4.663527E-01
  4.705538E-01
  4.702791E-01
  4.741882E-01
  4.703103E-01
  4.699863E-01
  4.646297E-01
  4.657995E-01
  4.625824E-01
  4.645329E-01
  4.609106E-01
  4.632007E-01
  4.625660E-01
  4.697026E-01
  4.714503E-01
  4.746731E-01
  4.683585E-01
  4.670357E-01
  4.642869E-01
  4.702823E-01
  4.704621E-01
  4.723085E-01
  4.661577E-01
  4.655890E-01
  4.619234E-01
  4.650485E-01
  4.628633E-01
  4.651105E-01
  4.618053E-01
  4.640603E-01
  4.615399E-01
  4.652521E-01
  4.658885E-01
  4.736314E-01
  4.746399E-01
  4.759771E-01
  4.677081E-01
  4.648527E-01
  4.607148E-01
  4.664405E-01
  4.699942E-01
  4.790074E-01
  4.795369E-01
  4.807016E-01
  4.740292E-01
  4.737394E-01
  4.704467E-01
  4.728421E-01
  4.689388E-01
  4.703447E-01
  4.703794E-01
  4.781346E-01
  4.794176E-01
  4.790308E-01
  4.694576E-01
  4.661250E-01
  4.637499E-01
  4.693979E-01
  4.693098E-01
  4.711004E-01
  4.678503E-01
  4.705378E-01
  4.686778E-01
  4.695358E-01
  4.650235E-01
  4.674446E-01
  4.686909E-01
  4.750622E-01
  4.735262E-01
  4.724716E-01
  4.654144E-01
  4.648277E-01
  4.626395E-01
  4.664833E-01
  4.650874E-01
  4.670384E-01
  4.646690E-01
  4.686669E-01
  4.692245E-01
  4.729593E-01
  4.692506E-01
  4.688737E-01
  4.653217E-01
  4.682636E-01
  4.666815E-01
  4.682141E-01
  4.644622E-01
  4.663126E-01
  4.647212E-01
  4.670058E-01
  4.627008E-01
  4.620225E-01
  4.580324E-01
  4.604778E-01
  4.592857E-01
  4.634941E-01
  4.655713E-01
  4.746345E-01
  4.774339E-01
  4.785507E-01
  4.694805E-01
  4.655035E-01
  4.627217E-01
  4.703880E-01
  4.755465E-01
  4.828968E-01
  4.805703E-01
  4.784406E-01
  4.708648E-01
  4.707281E-01
  4.691590E-01
  4.723657E-01
  4.690890E-01
  4.634638E-01
  4.695369E-01
  4.786768E-01
  4.812993E-01
  4.788154E-01
  4.703630E-01
  4.661808E-01
  4.649066E-01
  4.686604E-01
  4.698411E-01
  4.713811E-01
  4.702054E-01
  4.714140E-01
  4.703094E-01
  4.703463E-01
  4.681010E-01
  4.693286E-01
  4.702534E-01
  4.734265E-01
  4.726746E-01
  4.717802E-01
  4.678811E-01
  4.667211E-01
  4.648590E-01
  4.660609E-01
  4.651763E-01
  4.657345E-01
  4.641012E-01
  4.653584E-01
  4.651352E-01
  4.661417E-01
  4.636455E-01
  4.635219E-01
  4.638491E-01
  4.684616E-01
  4.701885E-01
  4.707490E-01
  4.668219E-01
  4.654233E-01
  4.638345E-01
  4.648894E-01
  4.623849E-01
  4.603341E-01
  4.565843E-01
  4.571851E-01
  4.582896E-01
  4.634180E-01
  4.681198E-01
  4.754776E-01
  4.781992E-01
  4.775327E-01
  4.704678E-01
  4.661117E-01
  4.642978E-01
  4.693613E-01
  4.746432E-01
  4.809840E-01
  4.811718E-01
  4.782461E-01
  4.700522E-01
  4.645505E-01
  4.597790E-01
  4.594993E-01
  4.589970E-01
  4.627561E-01
  4.703342E-01
  4.774082E-01
  4.819325E-01
  4.767765E-01
  4.688839E-01
  4.613164E-01
  4.613984E-01
  4.637519E-01
  4.682815E-01
  4.697179E-01
  4.724979E-01
  4.731851E-01
  4.740901E-01
  4.707127E-01
  4.685458E-01
  4.668290E-01
  4.700176E-01
  4.721685E-01
  4.741273E-01
  4.716031E-01
  4.700370E-01
  4.677419E-01
  4.689820E-01
  4.691738E-01
  4.704947E-01
  4.682286E-01
  4.664153E-01
  4.631557E-01
  4.638721E-01
  4.648485E-01
  4.678693E-01
  4.675915E-01
  4.678167E-01
  4.659559E-01
  4.661259E-01
  4.645675E-01
  4.655377E-01
  4.661625E-01
  4.691675E-01
  4.682250E-01
  4.658470E-01
  4.608225E-01
  4.604387E-01
  4.616490E-01
  4.654432E-01
  4.661347E-01
  4.685490E-01
  4.705874E-01
  4.742912E-01
  4.725979E-01
  4.691003E-01
  4.644274E-01
  4.663465E-01
  4.709594E-01
  4.781471E-01
  4.803203E-01
  4.795386E-01
  4.730600E-01
  4.674031E-01
  4.617391E-01
  4.606105E-01
  4.592707E-01
  4.607313E-01
  4.603066E-01
  4.706902E-01
  4.744460E-01
  4.783172E-01
  4.704400E-01
  4.661502E-01
  4.590254E-01
  4.616194E-01
  4.613730E-01
  4.675096E-01
  4.679138E-01
  4.730587E-01
  4.710069E-01
  4.727666E-01
  4.680790E-01
  4.696197E-01
  4.670546E-01
  4.710353E-01
  4.692456E-01
  4.723145E-01
  4.694346E-01
  4.720726E-01
  4.685575E-01
  4.697224E-01
  4.651204E-01
  4.668309E-01
  4.634745E-01
  4.652200E-01
  4.610332E-01
  4.634285E-01
  4.620351E-01
  4.667566E-01
  4.648452E-01
  4.675916E-01
  4.650885E-01
  4.685831E-01
  4.658576E-01
  4.679221E-01
  4.648586E-01
  4.681889E-01
  4.652185E-01
  4.659524E-01
  4.608685E-01
  4.640392E-01
  4.649091E-01
  4.715841E-01
  4.696916E-01
  4.707632E-01
  4.663798E-01
  4.688773E-01
  4.657199E-01
  4.670094E-01
  4.628173E-01
  4.660762E-01
  4.658842E-01
  4.721388E-01
  4.721880E-01
  4.759362E-01
  4.713310E-01
  4.699010E-01
  4.619635E-01
  4.603019E-01
  4.550347E-01
  4.584231E-01
  4.653610E-01
  4.718547E-01
  4.720782E-01
  4.755321E-01
  4.677978E-01
  4.644234E-01
  4.564069E-01
  4.585975E-01
  4.574318E-01
  4.641688E-01
  4.647721E-01
  4.712644E-01
  4.694382E-01
  4.715606E-01
  4.655806E-01
  4.669076E-01
  4.644971E-01
  4.708710E-01
  4.707089E-01
  4.750736E-01
  4.709459E-01
  4.724349E-01
  4.670536E-01
  4.678853E-01
  4.626992E-01
  4.654309E-01
  4.627661E-01
  4.660388E-01
  4.620722E-01
  4.659611E-01
  4.663098E-01
  4.738110E-01
  4.713315E-01
  4.709692E-01
  4.630971E-01
  4.641994E-01
  4.618118E-01
  4.675050E-01
  4.671335E-01
  4.721971E-01
  4.677800E-01
  4.671560E-01
  4.613585E-01
  4.673507E-01
  4.710440E-01
  4.792605E-01
  4.743361E-01
  4.713700E-01
  4.630236E-01
  4.649977E-01
  4.623833E-01
  4.654710E-01
  4.615913E-01
  4.655708E-01
  4.647132E-01
  4.701307E-01
  4.673684E-01
  4.698131E-01
  4.658339E-01
  4.691390E-01
  4.663484E-01
  4.695247E-01
  4.653374E-01
  4.676904E-01
  4.650626E-01
  4.698770E-01
  4.694285E-01
  4.712280E-01
  4.660884E-01
  4.653988E-01
  4.611223E-01
  4.626509E-01
  4.604991E-01
  4.644500E-01
  4.648322E-01
  4.693035E-01
  4.668458E-01
  4.674699E-01
  4.639874E-01
  4.674619E-01
  4.681790E-01
  4.738173E-01
  4.732625E-01
  4.756162E-01
  4.721423E-01
  4.726681E-01
  4.669772E-01
  4.643349E-01
  4.574160E-01
  4.584582E-01
  4.584347E-01
  4.640145E-01
  4.635835E-01
  4.673882E-01
  4.676979E-01
  4.728499E-01
  4.705909E-01
  4.702962E-01
  4.657601E-01
  4.686792E-01
  4.683370E-01
  4.717612E-01
  4.690267E-01
  4.702487E-01
  4.659058E-01
  4.655457E-01
  4.618651E-01
  4.669547E-01
  4.709765E-01
  4.787288E-01
  4.761357E-01
  4.731718E-01
  4.650919E-01
  4.649896E-01
  4.630009E-01
  4.659266E-01
  4.630437E-01
  4.643524E-01
  4.613119E-01
  4.635340E-01
  4.617171E-01
  4.655496E-01
  4.655709E-01
  4.703124E-01
  4.690066E-01
  4.703847E-01
  4.658057E-01
  4.666737E-01
  4.669446E-01
  4.672522E-01
  4.673843E-01
  4.700397E-01
  4.690696E-01
  4.686899E-01
  4.655917E-01
  4.652198E-01
  4.637327E-01
  4.657059E-01
  4.664401E-01
  4.691826E-01
  4.682802E-01
  4.680552E-01
  4.655891E-01
  4.672140E-01
  4.693719E-01
  4.751855E-01
  4.775119E-01
  4.787258E-01
  4.747149E-01
  4.717325E-01
  4.665533E-01
  4.638248E-01
  4.600142E-01
  4.610026E-01
  4.624350E-01
  4.663804E-01
  4.667839E-01
  4.694847E-01
  4.721553E-01
  4.775667E-01
  4.770610E-01
  4.740034E-01
  4.680333E-01
  4.677798E-01
  4.687667E-01
  4.724835E-01
  4.726160E-01
  4.732067E-01
  4.696559E-01
  4.670701E-01
  4.638642E-01
  4.671526E-01
  4.715047E-01
  4.765367E-01
  4.742456E-01
  4.706476E-01
  4.659189E-01
  4.666952E-01
  4.667084E-01
  4.676201E-01
  4.650965E-01
  4.656440E-01
  4.656111E-01
  4.675936E-01
  4.654841E-01
  4.645394E-01
  4.629752E-01
  4.665153E-01
  4.694192E-01
  4.733276E-01
  4.720950E-01
  4.706924E-01
  4.616591E-01
  4.631403E-01
  4.650140E-01
  4.681631E-01
  4.698066E-01
  4.718824E-01
  4.720654E-01
  4.720608E-01
  4.703506E-01
  4.703367E-01
  4.703112E-01
  4.709901E-01
  4.691741E-01
  4.678528E-01
  4.669895E-01
  4.695057E-01
  4.723965E-01
  4.759561E-01
  4.766202E-01
  4.760017E-01
  4.728633E-01
  4.704901E-01
  4.670805E-01
  4.644451E-01
  4.614286E-01
  4.619207E-01
  4.641468E-01
  4.677930E-01
  4.685064E-01
  4.690250E-01
  4.694922E-01
  4.720261E-01
  4.724427E-01
  4.722298E-01
  4.715012E-01
  4.737972E-01
  4.752395E-01
  4.751694E-01
  4.714905E-01
  4.686105E-01
  4.661100E-01
  4.658714E-01
  4.652814E-01
  4.664819E-01
  4.673754E-01
  4.690122E-01
  4.682885E-01
  4.677810E-01
  4.671212E-01
  4.690055E-01
  4.699075E-01
  4.701237E-01
  4.678778E-01
  4.672271E-01
  4.672881E-01
  4.690943E-01
  4.687343E-01
  4.678626E-01
  4.658036E-01
  4.659638E-01
  4.659956E-01
  4.664936E-01
  4.645786E-01
  4.631164E-01
  4.619101E-01
  4.616836E-01
  4.639606E-01
  4.684503E-01
  4.712635E-01
  4.726914E-01
  4.720085E-01
  4.716574E-01
  4.708761E-01
  4.713417E-01
  4.716201E-01
  4.724239E-01
  4.715045E-01
  4.701202E-01
  4.678453E-01
  4.675010E-01
  4.686734E-01
  4.722436E-01
  4.746600E-01
  4.749660E-01
  4.715850E-01
  4.681376E-01
  4.655321E-01
  4.656316E-01
  4.665164E-01
  4.691870E-01
  4.714679E-01
  4.728954E-01
  4.710912E-01
  4.693070E-01
  4.690300E-01
  4.716303E-01
  4.727575E-01
  4.720443E-01
  4.699340E-01
  4.702840E-01
  4.713036E-01
  4.719972E-01
  4.700138E-01
  4.679624E-01
  4.659467E-01
  4.658928E-01
  4.663290E-01
  4.679152E-01
  4.678857E-01
  4.666811E-01
  4.639544E-01
  4.636542E-01
  4.659271E-01
  4.705360E-01
  4.725452E-01
  4.716158E-01
  4.686633E-01
  4.689503E-01
  4.720785E-01
  4.761166E-01
  4.755516E-01
  4.713480E-01
  4.657621E-01
  4.639229E-01
  4.648769E-01
  4.673548E-01
  4.671398E-01
  4.650921E-01
  4.593640E-01
  4.610226E-01
  4.634065E-01
  4.669283E-01
  4.690963E-01
  4.714177E-01
  4.720265E-01
  4.723382E-01
  4.711690E-01
  4.713927E-01
  4.716339E-01
  4.722758E-01
  4.704273E-01
  4.684033E-01
  4.662838E-01
  4.667325E-01
  4.678017E-01
  4.703128E-01
  4.714936E-01
  4.719144E-01
  4.696397E-01
  4.673782E-01
  4.648046E-01
  4.643795E-01
  4.648971E-01
  4.682261E-01
  4.716185E-01
  4.741598E-01
  4.722394E-01
  4.686320E-01
  4.647511E-01
  4.641139E-01
  4.644882E-01
  4.665198E-01
  4.685133E-01
  4.718566E-01
  4.729591E-01
  4.714738E-01
  4.662256E-01
  4.620030E-01
  4.601160E-01
  4.626251E-01
  4.656203E-01
  4.679071E-01
  4.666486E-01
  4.647986E-01
  4.631173E-01
  4.649183E-01
  4.681854E-01
  4.723467E-01
  4.731293E-01
  4.715453E-01
  4.680082E-01
  4.672755E-01
  4.689293E-01
  4.729060E-01
  4.744236E-01
  4.736711E-01
  4.702470E-01
  4.680450E-01
  4.660903E-01
  4.650798E-01
  4.625084E-01
  4.606735E-01
  4.629864E-01
  4.630563E-01
  4.641730E-01
  4.678693E-01
  4.692182E-01
  4.702157E-01
  4.684024E-01
  4.678313E-01
  4.664829E-01
  4.677954E-01
  4.686112E-01
  4.707501E-01
  4.698752E-01
  4.685699E-01
  4.650681E-01
  4.642803E-01
  4.647131E-01
  4.691199E-01
  4.724306E-01
  4.747161E-01
  4.717457E-01
  4.680803E-01
  4.637541E-01
  4.636734E-01
  4.650977E-01
  4.699782E-01
  4.734829E-01
  4.760818E-01
  4.735185E-01
  4.703649E-01
  4.668118E-01
  4.671002E-01
  4.667416E-01
  4.669504E-01
  4.652857E-01
  4.662264E-01
  4.667561E-01
  4.680381E-01
  4.659521E-01
  4.642542E-01
  4.618973E-01
  4.631965E-01
  4.650885E-01
  4.687430E-01
  4.690630E-01
  4.685286E-01
  4.661328E-01
  4.673164E-01
  4.694676E-01
  4.730157E-01
  4.720081E-01
  4.691692E-01
  4.646443E-01
  4.648869E-01
  4.675206E-01
  4.726066E-01
  4.737486E-01
  4.732061E-01
  4.702921E-01
  4.703059E-01
  4.702789E-01
  4.712947E-01
  4.689329E-01
  4.665281E-01
  4.614425E-01
  4.642803E-01
  4.646730E-01
  4.676311E-01
  4.677524E-01
  4.702658E-01
  4.688488E-01
  4.686892E-01
  4.654733E-01
  4.664777E-01
  4.664469E-01
  4.689875E-01
  4.668638E-01
  4.661740E-01
  4.635916E-01
  4.658325E-01
  4.668754E-01
  4.710383E-01
  4.719765E-01
  4.744483E-01
  4.721874E-01
  4.706265E-01
  4.652737E-01
  4.633647E-01
  4.610802E-01
  4.645704E-01
  4.673408E-01
  4.722998E-01
  4.715760E-01
  4.706149E-01
  4.660748E-01
  4.655443E-01
  4.638924E-01
  4.659390E-01
  4.658707E-01
  4.689418E-01
  4.686252E-01
  4.691235E-01
  4.649936E-01
  4.634991E-01
  4.611262E-01
  4.637603E-01
  4.646054E-01
  4.675096E-01
  4.665947E-01
  4.682634E-01
  4.679617E-01
  4.710630E-01
  4.709402E-01
  4.718552E-01
  4.679970E-01
  4.659399E-01
  4.619196E-01
  4.625730E-01
  4.625199E-01
  4.665560E-01
  4.682984E-01
  4.724541E-01
  4.728976E-01
  4.745149E-01
  4.712709E-01
  4.689917E-01
  4.637230E-01
  4.628072E-01
  4.650843E-01
  4.664197E-01
  4.657988E-01
  4.687561E-01
  4.689052E-01
  4.705116E-01
  4.676087E-01
  4.665529E-01
  4.632893E-01
  4.643671E-01
  4.642017E-01
  4.670712E-01
  4.660910E-01
  4.665724E-01
  4.641753E-01
  4.657198E-01
  4.660718E-01
  4.702350E-01
  4.718113E-01
  4.751347E-01
  4.734717E-01
  4.721781E-01
  4.670078E-01
  4.653046E-01
  4.626838E-01
  4.647984E-01
  4.655779E-01
  4.692795E-01
  4.690934E-01
  4.704455E-01
  4.689892E-01
  4.709127E-01
  4.696695E-01
  4.695329E-01
  4.655669E-01
  4.651954E-01
  4.639136E-01
  4.665768E-01
  4.665809E-01
  4.688003E-01
  4.674305E-01
  4.680685E-01
  4.659231E-01
  4.673473E-01
  4.668583E-01
  4.691877E-01
  4.682135E-01
  4.695072E-01
  4.676300E-01
  4.676901E-01
  4.639673E-01
  4.629844E-01
  4.609879E-01
  4.641725E-01
  4.658426E-01
  4.695687E-01
  4.690527E-01
  4.705697E-01
  4.695286E-01
  4.713170E-01
  4.695898E-01
  4.696669E-01
  4.667346E-01
  4.670119E-01
  4.656984E-01
  4.674162E-01
  4.666620E-01
  4.667418E-01
  4.673641E-01
  4.695553E-01
  4.698932E-01
  4.690692E-01
  4.664595E-01
  4.654650E-01
  4.649647E-01
  4.654294E-01
  4.643788E-01
  4.644016E-01
  4.653765E-01
  4.685170E-01
  4.700328E-01
  4.704399E-01
  4.695547E-01
  4.708590E-01
  4.722848E-01
  4.731303E-01
  4.702854E-01
  4.662480E-01
  4.615969E-01
  4.598302E-01
  4.600681E-01
  4.631552E-01
  4.654520E-01
  4.668383E-01
  4.658498E-01
  4.656974E-01
  4.657759E-01
  4.673555E-01
  4.680080E-01
  4.688368E-01
  4.679564E-01
  4.671892E-01
  4.658692E-01
  4.665783E-01
  4.673900E-01
  4.684311E-01
  4.671130E-01
  4.658911E-01
  4.648523E-01
  4.661594E-01
  4.669606E-01
  4.673093E-01
  4.652421E-01
  4.633660E-01
  4.615111E-01
  4.623632E-01
  4.642251E-01
  4.672650E-01
  4.681854E-01
  4.683726E-01
  4.675199E-01
  4.682604E-01
  4.682637E-01
  4.676031E-01
  4.643457E-01
  4.618818E-01
  4.608589E-01
  4.633130E-01
  4.735911E-01
  4.707288E-01
  4.685561E-01
  4.662380E-01
  4.675379E-01
  4.675205E-01
  4.684608E-01
  4.669757E-01
  4.670658E-01
  4.655369E-01
  4.658204E-01
  4.644724E-01
  4.651579E-01
  4.649649E-01
  4.676701E-01
  4.691095E-01
  4.712456E-01
  4.701700E-01
  4.707402E-01
  4.708570E-01
  4.732310E-01
  4.724028E-01
  4.710408E-01
  4.667133E-01
  4.642779E-01
  4.612075E-01
  4.615660E-01
  4.619231E-01
  4.645299E-01
  4.646299E-01
  4.658760E-01
  4.660347E-01
  4.686108E-01
  4.687440E-01
  4.689094E-01
  4.662785E-01
  4.656527E-01
  4.645611E-01
  4.667445E-01
  4.680573E-01
  4.702689E-01
  4.687857E-01
  4.680211E-01
  4.665920E-01
  4.684028E-01
  4.681472E-01
  4.675218E-01
  4.636783E-01
  4.621644E-01
  4.607488E-01
  4.625986E-01
  4.639226E-01
  4.682340E-01
  4.713282E-01
  4.744832E-01
  4.724614E-01
  4.693819E-01
  4.641778E-01
  4.620344E-01
  4.597781E-01
  4.608762E-01
  4.624639E-01
  4.677971E-01
  4.712842E-01
  4.764557E-01
  4.736590E-01
  4.699629E-01
  4.650725E-01
  4.652464E-01
  4.656817E-01
  4.685538E-01
  4.684135E-01
  4.693653E-01
  4.677241E-01
  4.676119E-01
  4.646217E-01
  4.636721E-01
  4.627213E-01
  4.671685E-01
  4.710689E-01
  4.747646E-01
  4.724294E-01
  4.706649E-01
  4.687839E-01
  4.712838E-01
  4.712622E-01
  4.705277E-01
  4.653061E-01
  4.618784E-01
  4.581576E-01
  4.593322E-01
  4.607681E-01
  4.642241E-01
  4.632310E-01
  4.623862E-01
  4.606198E-01
  4.641800E-01
  4.677801E-01
  4.724989E-01
  4.720986E-01
  4.708831E-01
  4.664789E-01
  4.651048E-01
  4.636352E-01
  4.655542E-01
  4.654152E-01
  4.669899E-01
  4.668568E-01
  4.693066E-01
  4.688236E-01
  4.681560E-01
  4.638115E-01
  4.622637E-01
  4.610970E-01
  4.643260E-01
  4.667447E-01
  4.712693E-01
  4.722732E-01
  4.725325E-01
  4.680767E-01
  4.651189E-01
  4.613910E-01
  4.609416E-01
  4.586830E-01
  4.591549E-01
  4.601675E-01
  4.666486E-01
  4.720772E-01
  4.810220E-01
  4.763380E-01
  4.710622E-01
  4.668259E-01
  4.657236E-01
  4.647205E-01
  4.648115E-01
  4.647087E-01
  4.661702E-01
  4.666141E-01
  4.667310E-01
  4.647963E-01
  4.635385E-01
  4.627898E-01
  4.650828E-01
  4.679122E-01
  4.708013E-01
  4.706596E-01
  4.699839E-01
  4.688087E-01
  4.692469E-01
  4.686320E-01
  4.678857E-01
  4.655745E-01
  4.640890E-01
  4.625241E-01
  4.632999E-01
  4.645856E-01
  4.663980E-01
  4.656350E-01
  4.651076E-01
  4.657580E-01
  4.697570E-01
  4.727066E-01
  4.734101E-01
  4.702131E-01
  4.672396E-01
  4.649919E-01
  4.655361E-01
  4.659481E-01
  4.664105E-01
  4.653185E-01
  4.662507E-01
  4.687703E-01
  4.726262E-01
  4.723734E-01
  4.685149E-01
  4.625608E-01
  4.604161E-01
  4.614818E-01
  4.652488E-01
  4.677987E-01
  4.704195E-01
  4.715349E-01
  4.718711E-01
  4.687999E-01
  4.649773E-01
  4.609704E-01
  4.597739E-01
  4.596785E-01
  4.624880E-01
  4.671810E-01
  4.746570E-01
  4.798822E-01
  4.760694E-01
  4.739628E-01
  4.702820E-01
  4.662501E-01
  4.648871E-01
  4.643616E-01
  4.649952E-01
  4.647202E-01
  4.652304E-01
  4.652818E-01
  4.657355E-01
  4.641909E-01
  4.624214E-01
  4.609271E-01
  4.628570E-01
  4.658595E-01
  4.684238E-01
  4.671617E-01
  4.648388E-01
  4.629552E-01
  4.644121E-01
  4.664435E-01
  4.681151E-01
  4.667553E-01
  4.647034E-01
  4.626030E-01
  4.636428E-01
  4.659626E-01
  4.684042E-01
  4.673089E-01
  4.653916E-01
  4.647474E-01
  4.684057E-01
  4.724506E-01
  4.747391E-01
  4.727086E-01
  4.695789E-01
  4.660329E-01
  4.644657E-01
  4.632535E-01
  4.634985E-01
  4.637751E-01
  4.659137E-01
  4.682378E-01
  4.706958E-01
  4.698035E-01
  4.667218E-01
  4.621679E-01
  4.604050E-01
  4.609115E-01
  4.639577E-01
  4.663835E-01
  4.685789E-01
  4.684133E-01
  4.671719E-01
  4.644868E-01
  4.639426E-01
  4.650231E-01
  4.676732E-01
  4.681581E-01
  4.678473E-01
  4.675254E-01
  4.704104E-01
  4.738085E-01
  4.735624E-01
  4.697276E-01
  4.693924E-01
  4.664281E-01
  4.673753E-01
  4.643152E-01
  4.642488E-01
  4.609838E-01
  4.621571E-01
  4.607776E-01
  4.634569E-01
  4.627662E-01
  4.652802E-01
  4.637974E-01
  4.654481E-01
  4.633710E-01
  4.644356E-01
  4.614934E-01
  4.620011E-01
  4.600224E-01
  4.633406E-01
  4.646929E-01
  4.696211E-01
  4.694646E-01
  4.708614E-01
  4.681053E-01
  4.699677E-01
  4.695168E-01
  4.720117E-01
  4.693563E-01
  4.702189E-01
  4.698172E-01
  4.744076E-01
  4.734520E-01
  4.720760E-01
  4.653844E-01
  4.640655E-01
  4.624917E-01
  4.661611E-01
  4.658170E-01
  4.675100E-01
  4.652076E-01
  4.676976E-01
  4.682867E-01
  4.718105E-01
  4.686189E-01
  4.659303E-01
  4.598375E-01
  4.601041E-01
  4.596943E-01
  4.636275E-01
  4.636145E-01
  4.668281E-01
  4.665950E-01
  4.695023E-01
  4.682465E-01
  4.706230E-01
  4.704892E-01
  4.743427E-01
  4.736078E-01
  4.748887E-01
  4.723387E-01
  4.741166E-01
  4.726280E-01
  4.663990E-01
  4.648547E-01
  4.684985E-01
  4.651904E-01
  4.679904E-01
  4.650173E-01
  4.678056E-01
  4.633299E-01
  4.642168E-01
  4.598140E-01
  4.633061E-01
  4.620340E-01
  4.670622E-01
  4.656618E-01
  4.698730E-01
  4.667743E-01
  4.677752E-01
  4.610024E-01
  4.606790E-01
  4.570918E-01
  4.632622E-01
  4.653306E-01
  4.722533E-01
  4.696763E-01
  4.707355E-01
  4.660656E-01
  4.699100E-01
  4.691590E-01
  4.732613E-01
  4.685612E-01
  4.691941E-01
  4.657523E-01
  4.705612E-01
  4.687356E-01
  4.707239E-01
  4.653520E-01
  4.667993E-01
  4.632061E-01
  4.659085E-01
  4.625288E-01
  4.660553E-01
  4.647078E-01
  4.699219E-01
  4.681290E-01
  4.707494E-01
  4.657741E-01
  4.665349E-01
  4.618877E-01
  4.643310E-01