# vtk DataFile Version 2.0
title
ASCII
DATASET STRUCTURED_GRID
DIMENSIONS   64   64    1
POINTS   4096  float
  0.000000E+00  0.000000E+00  0.000000E+00
  0.000000E+00  3.906250E-01  0.000000E+00
  0.000000E+00  7.812500E-01  0.000000E+00
  0.000000E+00  1.171875E+00  0.000000E+00
  0.000000E+00  1.562500E+00  0.000000E+00
  0.000000E+00  1.953125E+00  0.000000E+00
  0.000000E+00  2.343750E+00  0.000000E+00
  0.000000E+00  2.734375E+00  0.000000E+00
  0.000000E+00  3.125000E+00  0.000000E+00
  0.000000E+00  3.515625E+00  0.000000E+00
  0.000000E+00  3.906250E+00  0.000000E+00
  0.000000E+00  4.296875E+00  0.000000E+00
  0.000000E+00  4.687500E+00  0.000000E+00
  0.000000E+00  5.078125E+00  0.000000E+00
  0.000000E+00  5.468750E+00  0.000000E+00
  0.000000E+00  5.859375E+00  0.000000E+00
  0.000000E+00  6.250000E+00  0.000000E+00
  0.000000E+00  6.640625E+00  0.000000E+00
  0.000000E+00  7.031250E+00  0.000000E+00
  0.000000E+00  7.421875E+00  0.000000E+00
  0.000000E+00  7.812500E+00  0.000000E+00
  0.000000E+00  8.203125E+00  0.000000E+00
  0.000000E+00  8.593750E+00  0.000000E+00
  0.000000E+00  8.984375E+00  0.000000E+00
  0.000000E+00  9.375000E+00  0.000000E+00
  0.000000E+00  9.765625E+00  0.000000E+00
  0.000000E+00  1.015625E+01  0.000000E+00
  0.000000E+00  1.054688E+01  0.000000E+00
  0.000000E+00  1.093750E+01  0.000000E+00
  0.000000E+00  1.132812E+01  0.000000E+00
  0.000000E+00  1.171875E+01  0.000000E+00
  0.000000E+00  1.210938E+01  0.000000E+00
  0.000000E+00  1.250000E+01  0.000000E+00
  0.000000E+00  1.289062E+01  0.000000E+00
  0.000000E+00  1.328125E+01  0.000000E+00
  0.000000E+00  1.367188E+01  0.000000E+00
  0.000000E+00  1.406250E+01  0.000000E+00
  0.000000E+00  1.445312E+01  0.000000E+00
  0.000000E+00  1.484375E+01  0.000000E+00
  0.000000E+00  1.523438E+01  0.000000E+00
  0.000000E+00  1.562500E+01  0.000000E+00
  0.000000E+00  1.601562E+01  0.000000E+00
  0.000000E+00  1.640625E+01  0.000000E+00
  0.000000E+00  1.679688E+01  0.000000E+00
  0.000000E+00  1.718750E+01  0.000000E+00
  0.000000E+00  1.757812E+01  0.000000E+00
  0.000000E+00  1.796875E+01  0.000000E+00
  0.000000E+00  1.835938E+01  0.000000E+00
  0.000000E+00  1.875000E+01  0.000000E+00
  0.000000E+00  1.914062E+01  0.000000E+00
  0.000000E+00  1.953125E+01  0.000000E+00
  0.000000E+00  1.992188E+01  0.000000E+00
  0.000000E+00  2.031250E+01  0.000000E+00
  0.000000E+00  2.070312E+01  0.000000E+00
  0.000000E+00  2.109375E+01  0.000000E+00
  0.000000E+00  2.148438E+01  0.000000E+00
  0.000000E+00  2.187500E+01  0.000000E+00
  0.000000E+00  2.226562E+01  0.000000E+00
  0.000000E+00  2.265625E+01  0.000000E+00
  0.000000E+00  2.304688E+01  0.000000E+00
  0.000000E+00  2.343750E+01  0.000000E+00
  0.000000E+00  2.382812E+01  0.000000E+00
  0.000000E+00  2.421875E+01  0.000000E+00
  0.000000E+00  2.460938E+01  0.000000E+00
  3.906250E-01  0.000000E+00  0.000000E+00
  3.906250E-01  3.906250E-01  0.000000E+00
  3.906250E-01  7.812500E-01  0.000000E+00
  3.906250E-01  1.171875E+00  0.000000E+00
  3.906250E-01  1.562500E+00  0.000000E+00
  3.906250E-01  1.953125E+00  0.000000E+00
  3.906250E-01  2.343750E+00  0.000000E+00
  3.906250E-01  2.734375E+00  0.000000E+00
  3.906250E-01  3.125000E+00  0.000000E+00
  3.906250E-01  3.515625E+00  0.000000E+00
  3.906250E-01  3.906250E+00  0.000000E+00
  3.906250E-01  4.296875E+00  0.000000E+00
  3.906250E-01  4.687500E+00  0.000000E+00
  3.906250E-01  5.078125E+00  0.000000E+00
  3.906250E-01  5.468750E+00  0.000000E+00
  3.906250E-01  5.859375E+00  0.000000E+00
  3.906250E-01  6.250000E+00  0.000000E+00
  3.906250E-01  6.640625E+00  0.000000E+00
  3.906250E-01  7.031250E+00  0.000000E+00
  3.906250E-01  7.421875E+00  0.000000E+00
  3.906250E-01  7.812500E+00  0.000000E+00
  3.906250E-01  8.203125E+00  0.000000E+00
  3.906250E-01  8.593750E+00  0.000000E+00
  3.906250E-01  8.984375E+00  0.000000E+00
  3.906250E-01  9.375000E+00  0.000000E+00
  3.906250E-01  9.765625E+00  0.000000E+00
  3.906250E-01  1.015625E+01  0.000000E+00
  3.906250E-01  1.054688E+01  0.000000E+00
  3.906250E-01  1.093750E+01  0.000000E+00
  3.906250E-01  1.132812E+01  0.000000E+00
  3.906250E-01  1.171875E+01  0.000000E+00
  3.906250E-01  1.210938E+01  0.000000E+00
  3.906250E-01  1.250000E+01  0.000000E+00
  3.906250E-01  1.289062E+01  0.000000E+00
  3.906250E-01  1.328125E+01  0.000000E+00
  3.906250E-01  1.367188E+01  0.000000E+00
  3.906250E-01  1.406250E+01  0.000000E+00
  3.906250E-01  1.445312E+01  0.000000E+00
  3.906250E-01  1.484375E+01  0.000000E+00
  3.906250E-01  1.523438E+01  0.000000E+00
  3.906250E-01  1.562500E+01  0.000000E+00
  3.906250E-01  1.601562E+01  0.000000E+00
  3.906250E-01  1.640625E+01  0.000000E+00
  3.906250E-01  1.679688E+01  0.000000E+00
  3.906250E-01  1.718750E+01  0.000000E+00
  3.906250E-01  1.757812E+01  0.000000E+00
  3.906250E-01  1.796875E+01  0.000000E+00
  3.906250E-01  1.835938E+01  0.000000E+00
  3.906250E-01  1.875000E+01  0.000000E+00
  3.906250E-01  1.914062E+01  0.000000E+00
  3.906250E-01  1.953125E+01  0.000000E+00
  3.906250E-01  1.992188E+01  0.000000E+00
  3.906250E-01  2.031250E+01  0.000000E+00
  3.906250E-01  2.070312E+01  0.000000E+00
  3.906250E-01  2.109375E+01  0.000000E+00
  3.906250E-01  2.148438E+01  0.000000E+00
  3.906250E-01  2.187500E+01  0.000000E+00
  3.906250E-01  2.226562E+01  0.000000E+00
  3.906250E-01  2.265625E+01  0.000000E+00
  3.906250E-01  2.304688E+01  0.000000E+00
  3.906250E-01  2.343750E+01  0.000000E+00
  3.906250E-01  2.382812E+01  0.000000E+00
  3.906250E-01  2.421875E+01  0.000000E+00
  3.906250E-01  2.460938E+01  0.000000E+00
  7.812500E-01  0.000000E+00  0.000000E+00
  7.812500E-01  3.906250E-01  0.000000E+00
  7.812500E-01  7.812500E-01  0.000000E+00
  7.812500E-01  1.171875E+00  0.000000E+00
  7.812500E-01  1.562500E+00  0.000000E+00
  7.812500E-01  1.953125E+00  0.000000E+00
  7.812500E-01  2.343750E+00  0.000000E+00
  7.812500E-01  2.734375E+00  0.000000E+00
  7.812500E-01  3.125000E+00  0.000000E+00
  7.812500E-01  3.515625E+00  0.000000E+00
  7.812500E-01  3.906250E+00  0.000000E+00
  7.812500E-01  4.296875E+00  0.000000E+00
  7.812500E-01  4.687500E+00  0.000000E+00
  7.812500E-01  5.078125E+00  0.000000E+00
  7.812500E-01  5.468750E+00  0.000000E+00
  7.812500E-01  5.859375E+00  0.000000E+00
  7.812500E-01  6.250000E+00  0.000000E+00
  7.812500E-01  6.640625E+00  0.000000E+00
  7.812500E-01  7.031250E+00  0.000000E+00
  7.812500E-01  7.421875E+00  0.000000E+00
  7.812500E-01  7.812500E+00  0.000000E+00
  7.812500E-01  8.203125E+00  0.000000E+00
  7.812500E-01  8.593750E+00  0.000000E+00
  7.812500E-01  8.984375E+00  0.000000E+00
  7.812500E-01  9.375000E+00  0.000000E+00
  7.812500E-01  9.765625E+00  0.000000E+00
  7.812500E-01  1.015625E+01  0.000000E+00
  7.812500E-01  1.054688E+01  0.000000E+00
  7.812500E-01  1.093750E+01  0.000000E+00
  7.812500E-01  1.132812E+01  0.000000E+00
  7.812500E-01  1.171875E+01  0.000000E+00
  7.812500E-01  1.210938E+01  0.000000E+00
  7.812500E-01  1.250000E+01  0.000000E+00
  7.812500E-01  1.289062E+01  0.000000E+00
  7.812500E-01  1.328125E+01  0.000000E+00
  7.812500E-01  1.367188E+01  0.000000E+00
  7.812500E-01  1.406250E+01  0.000000E+00
  7.812500E-01  1.445312E+01  0.000000E+00
  7.812500E-01  1.484375E+01  0.000000E+00
  7.812500E-01  1.523438E+01  0.000000E+00
  7.812500E-01  1.562500E+01  0.000000E+00
  7.812500E-01  1.601562E+01  0.000000E+00
  7.812500E-01  1.640625E+01  0.000000E+00
  7.812500E-01  1.679688E+01  0.000000E+00
  7.812500E-01  1.718750E+01  0.000000E+00
  7.812500E-01  1.757812E+01  0.000000E+00
  7.812500E-01  1.796875E+01  0.000000E+00
  7.812500E-01  1.835938E+01  0.000000E+00
  7.812500E-01  1.875000E+01  0.000000E+00
  7.812500E-01  1.914062E+01  0.000000E+00
  7.812500E-01  1.953125E+01  0.000000E+00
  7.812500E-01  1.992188E+01  0.000000E+00
  7.812500E-01  2.031250E+01  0.000000E+00
  7.812500E-01  2.070312E+01  0.000000E+00
  7.812500E-01  2.109375E+01  0.000000E+00
  7.812500E-01  2.148438E+01  0.000000E+00
  7.812500E-01  2.187500E+01  0.000000E+00
  7.812500E-01  2.226562E+01  0.000000E+00
  7.812500E-01  2.265625E+01  0.000000E+00
  7.812500E-01  2.304688E+01  0.000000E+00
  7.812500E-01  2.343750E+01  0.000000E+00
  7.812500E-01  2.382812E+01  0.000000E+00
  7.812500E-01  2.421875E+01  0.000000E+00
  7.812500E-01  2.460938E+01  0.000000E+00
  1.171875E+00  0.000000E+00  0.000000E+00
  1.171875E+00  3.906250E-01  0.000000E+00
  1.171875E+00  7.812500E-01  0.000000E+00
  1.171875E+00  1.171875E+00  0.000000E+00
  1.171875E+00  1.562500E+00  0.000000E+00
  1.171875E+00  1.953125E+00  0.000000E+00
  1.171875E+00  2.343750E+00  0.000000E+00
  1.171875E+00  2.734375E+00  0.000000E+00
  1.171875E+00  3.125000E+00  0.000000E+00
  1.171875E+00  3.515625E+00  0.000000E+00
  1.171875E+00  3.906250E+00  0.000000E+00
  1.171875E+00  4.296875E+00  0.000000E+00
  1.171875E+00  4.687500E+00  0.000000E+00
  1.171875E+00  5.078125E+00  0.000000E+00
  1.171875E+00  5.468750E+00  0.000000E+00
  1.171875E+00  5.859375E+00  0.000000E+00
  1.171875E+00  6.250000E+00  0.000000E+00
  1.171875E+00  6.640625E+00  0.000000E+00
  1.171875E+00  7.031250E+00  0.000000E+00
  1.171875E+00  7.421875E+00  0.000000E+00
  1.171875E+00  7.812500E+00  0.000000E+00
  1.171875E+00  8.203125E+00  0.000000E+00
  1.171875E+00  8.593750E+00  0.000000E+00
  1.171875E+00  8.984375E+00  0.000000E+00
  1.171875E+00  9.375000E+00  0.000000E+00
  1.171875E+00  9.765625E+00  0.000000E+00
  1.171875E+00  1.015625E+01  0.000000E+00
  1.171875E+00  1.054688E+01  0.000000E+00
  1.171875E+00  1.093750E+01  0.000000E+00
  1.171875E+00  1.132812E+01  0.000000E+00
  1.171875E+00  1.171875E+01  0.000000E+00
  1.171875E+00  1.210938E+01  0.000000E+00
  1.171875E+00  1.250000E+01  0.000000E+00
  1.171875E+00  1.289062E+01  0.000000E+00
  1.171875E+00  1.328125E+01  0.000000E+00
  1.171875E+00  1.367188E+01  0.000000E+00
  1.171875E+00  1.406250E+01  0.000000E+00
  1.171875E+00  1.445312E+01  0.000000E+00
[...]
POINT_DATA   4096
SCALARS CON  float  1
LOOKUP_TABLE default
  4.702685E-01
  4.682101E-01
  4.735806E-01
  4.736891E-01
  4.742540E-01
  4.666534E-01
  4.658905E-01
  4.657830E-01
  4.728413E-01
  4.721016E-01
  4.717823E-01
  4.660678E-01
  4.677735E-01
  4.665265E-01
  4.690486E-01
  4.656066E-01
  4.683258E-01
  4.688628E-01
  4.739137E-01
  4.709280E-01
  4.702975E-01
  4.651597E-01
  4.659180E-01
  4.627309E-01
  4.648710E-01
  4.622632E-01
  4.639274E-01
  4.620263E-01
  4.682313E-01
  4.714173E-01
  4.755903E-01
  4.686306E-01
  4.651156E-01
  4.624522E-01
  4.698734E-01
  4.711800E-01
  4.720800E-01
  4.658576E-01
  4.654459E-01
  4.618588E-01
  4.645683E-01
  4.635441E-01
  4.659927E-01
  4.622024E-01
  4.645632E-01
  4.636603E-01
  4.658952E-01
  4.633333E-01
  4.700613E-01
  4.737178E-01
  4.757051E-01
  4.667045E-01
  4.643597E-01
  4.623748E-01
  4.673925E-01
  4.691212E-01
  4.774105E-01
  4.790451E-01
  4.799235E-01
  4.731425E-01
  4.734424E-01
  4.717171E-01
  4.741953E-01
  4.699222E-01
  4.698202E-01
  4.686194E-01
  4.765313E-01
  4.803965E-01
  4.805776E-01
  4.698539E-01
  4.645025E-01
  4.630713E-01
  4.701016E-01
  4.703454E-01
  4.696451E-01
  4.656052E-01
  4.693742E-01
  4.698526E-01
  4.703901E-01
  4.648596E-01
  4.660858E-01
  4.682737E-01
  4.755801E-01
  4.753779E-01
  4.738158E-01
  4.657979E-01
  4.632104E-01
  4.608579E-01
  4.653230E-01
  4.656352E-01
  4.675231E-01
  4.649187E-01
  4.683659E-01
  4.700496E-01
  4.736949E-01
  4.689770E-01
  4.667473E-01
  4.640746E-01
  4.682433E-01
  4.675562E-01
  4.682916E-01
  4.647091E-01
  4.659906E-01
  4.642806E-01
  4.662321E-01
  4.629050E-01
  4.618810E-01
  4.577454E-01
  4.602349E-01
  4.604947E-01
  4.638655E-01
  4.645276E-01
  4.734172E-01
  4.789318E-01
  4.801632E-01
  4.695100E-01
  4.645107E-01
  4.632401E-01
  4.703048E-01
  4.738343E-01
  4.798791E-01
  4.788859E-01
  4.772327E-01
  4.697922E-01
  4.691325E-01
  4.689036E-01
  4.731533E-01
  4.704665E-01
  4.631405E-01
  4.676193E-01
  4.776141E-01
  4.817189E-01
  4.792925E-01
  4.695847E-01
  4.656832E-01
  4.657329E-01
  4.700316E-01
  4.698158E-01
  4.700134E-01
  4.685511E-01
  4.707962E-01
  4.706082E-01
  4.710076E-01
  4.681356E-01
  4.690783E-01
  4.702447E-01
  4.740823E-01
  4.733627E-01
  4.723671E-01
  4.677872E-01
  4.657441E-01
  4.632524E-01
  4.653345E-01
  4.654334E-01
  4.659777E-01
  4.634588E-01
  4.650423E-01
  4.657614E-01
  4.670700E-01
  4.634247E-01
  4.626552E-01
  4.635408E-01
  4.693491E-01
  4.708808E-01
  4.706850E-01
  4.665875E-01
  4.658775E-01
  4.642332E-01
  4.653085E-01
  4.632498E-01
  4.614273E-01
  4.564339E-01
  4.563873E-01
  4.582527E-01
  4.643477E-01
  4.687222E-01
  4.765923E-01
  4.803999E-01
  4.791109E-01
  4.695618E-01
  4.649379E-01
  4.647330E-01
  4.700422E-01
  4.731560E-01
  4.785959E-01
  4.798050E-01
  4.776917E-01
  4.686067E-01
  4.631041E-01
  4.600147E-01
  4.616320E-01
  4.606739E-01
  4.622460E-01
  4.682945E-01
  4.768526E-01
  4.818683E-01
  4.763581E-01
  4.670357E-01
  4.610823E-01
  4.628484E-01
  4.663435E-01
  4.690464E-01
  4.692762E-01
  4.712101E-01
  4.732432E-01
  4.743251E-01
  4.712067E-01
  4.683381E-01
  4.675248E-01
  4.705251E-01
  4.725062E-01
  4.730151E-01
  4.708125E-01
  4.694467E-01
  4.684273E-01
  4.697475E-01
  4.706230E-01
  4.710653E-01
  4.684776E-01
  4.656534E-01
  4.628824E-01
  4.634433E-01
  4.652026E-01
  4.677939E-01
  4.680074E-01
  4.681466E-01
  4.673169E-01
  4.671297E-01
  4.655408E-01
  4.651241E-01
  4.658294E-01
  4.694052E-01
  4.704299E-01
  4.675693E-01
  4.619404E-01
  4.605965E-01
  4.624156E-01
  4.656910E-01
  4.665233E-01
  4.681071E-01
  4.709158E-01
  4.749718E-01
  4.734147E-01
  4.677029E-01
  4.631261E-01
  4.664532E-01
  4.727497E-01
  4.782944E-01
  4.798588E-01
  4.794084E-01
  4.742306E-01
  4.673574E-01
  4.616052E-01
  4.611357E-01
  4.615655E-01
  4.618649E-01
  4.595943E-01
  4.701102E-01
  4.746709E-01
  4.785091E-01
  4.694822E-01
  4.648334E-01
  4.595397E-01
  4.637812E-01
  4.631098E-01
  4.679807E-01
  4.681989E-01
  4.735562E-01
  4.713283E-01
  4.728008E-01
  4.683526E-01
  4.702277E-01
  4.679867E-01
  4.719360E-01
  4.693330E-01
  4.709650E-01
  4.678213E-01
  4.718499E-01
  4.699263E-01
  4.713697E-01
  4.664993E-01
  4.681451E-01
  4.647967E-01
  4.659550E-01
  4.607838E-01
  4.624910E-01
  4.618329E-01
  4.679413E-01
  4.662781E-01
  4.679957E-01
  4.653498E-01
  4.695855E-01
  4.665428E-01
  4.668690E-01
  4.632612E-01
  4.681762E-01
  4.668781E-01
  4.672825E-01
  4.611735E-01
  4.642807E-01
  4.658767E-01
  4.725949E-01
  4.695477E-01
  4.687648E-01
  4.638709E-01
  4.678369E-01
  4.660655E-01
  4.667967E-01
  4.622369E-01
  4.667566E-01
  4.674962E-01
  4.727623E-01
  4.721221E-01
  4.765249E-01
  4.721573E-01
  4.697747E-01
  4.617294E-01
  4.609493E-01
  4.559454E-01
  4.584353E-01
  4.652945E-01
  4.725182E-01
  4.725059E-01
  4.759121E-01
  4.673221E-01
  4.642240E-01
  4.567955E-01
  4.598367E-01
  4.580767E-01
  4.645699E-01
  4.646171E-01
  4.712786E-01
  4.693421E-01
  4.720281E-01
  4.657673E-01
  4.671000E-01
  4.642406E-01
  4.708751E-01
  4.702124E-01
  4.742454E-01
  4.696132E-01
  4.722182E-01
  4.675451E-01
  4.683538E-01
  4.618307E-01
  4.649574E-01
  4.638132E-01
  4.686021E-01
  4.628923E-01
  4.646528E-01
  4.649687E-01
  4.750597E-01
  4.726199E-01
  4.703433E-01
  4.613847E-01
  4.646991E-01
  4.632336E-01
  4.672755E-01
  4.646869E-01
  4.713848E-01
  4.686653E-01
  4.670700E-01
  4.588929E-01
  4.661374E-01
  4.721588E-01
  4.812031E-01
  4.740314E-01
  4.688562E-01
  4.596292E-01
  4.641695E-01
  4.640402E-01
  4.674612E-01
  4.618191E-01
  4.658870E-01
  4.651729E-01
  4.701508E-01
  4.663068E-01
  4.693746E-01
  4.657406E-01
  4.694975E-01
  4.664738E-01
  4.696563E-01
  4.646305E-01
  4.672615E-01
  4.663367E-01
  4.706962E-01
  4.695398E-01
  4.701929E-01
  4.652617E-01
  4.649689E-01
  4.621203E-01
  4.631582E-01
  4.599315E-01
  4.630016E-01
  4.647396E-01
  4.696523E-01
  4.670732E-01
  4.667514E-01
  4.636101E-01
  4.665825E-01
  4.670183E-01
  4.722470E-01
  4.726484E-01
  4.747495E-01
  4.713574E-01
  4.722353E-01
  4.676830E-01
  4.636367E-01
  4.551069E-01
  4.559219E-01
  4.588924E-01
  4.663194E-01
  4.650804E-01
  4.656754E-01
  4.661114E-01
  4.734793E-01
  4.719611E-01
  4.683086E-01
  4.626746E-01
  4.676807E-01
  4.698508E-01
  4.718688E-01
  4.679881E-01
  4.697332E-01
  4.668603E-01
  4.649778E-01
  4.597381E-01
  4.646055E-01
  4.708998E-01
  4.799367E-01
  4.774886E-01
  4.723913E-01
  4.635378E-01
  4.644803E-01
  4.649292E-01
  4.675926E-01
  4.639815E-01
  4.647765E-01
  4.619964E-01
  4.628795E-01
  4.606361E-01
  4.643113E-01
  4.652363E-01
  4.706261E-01
  4.707639E-01
  4.716195E-01
  4.662751E-01
  4.667733E-01
  4.680082E-01
  4.666521E-01
  4.665282E-01
  4.687164E-01
  4.688583E-01
  4.686451E-01
  4.670022E-01
  4.659660E-01
  4.640713E-01
  4.648419E-01
  4.664977E-01
  4.690616E-01
  4.685602E-01
  4.672171E-01
  4.653057E-01
  4.667520E-01
  4.696735E-01
  4.749057E-01
  4.781483E-01
  4.785936E-01
  4.743941E-01
  4.711137E-01
  4.681072E-01
  4.649916E-01
  4.596872E-01
  4.585681E-01
  4.621390E-01
  4.680801E-01
  4.687569E-01
  4.680097E-01
  4.704686E-01
  4.775490E-01
  4.785478E-01
  4.724299E-01
  4.654154E-01
  4.666902E-01
  4.708838E-01
  4.731996E-01
  4.718618E-01
  4.725634E-01
  4.716492E-01
  4.678780E-01
  4.629088E-01
  4.648695E-01
  4.709975E-01
  4.768713E-01
  4.760856E-01
  4.717031E-01
  4.666700E-01
  4.667767E-01
  4.680378E-01
  4.680435E-01
  4.652036E-01
  4.652137E-01
  4.663916E-01
  4.676590E-01
  4.654692E-01
  4.635657E-01
  4.631814E-01
  4.675116E-01
  4.717325E-01
  4.741786E-01
  4.726984E-01
  4.710536E-01
  4.614155E-01
  4.624211E-01
  4.643544E-01
  4.686532E-01
  4.700027E-01
  4.722213E-01
  4.730609E-01
  4.736419E-01
  4.703941E-01
  4.697473E-01
  4.703698E-01
  4.721731E-01
  4.693040E-01
  4.673180E-01
  4.671209E-01
  4.714593E-01
  4.742113E-01
  4.773317E-01
  4.776155E-01
  4.767169E-01
  4.719209E-01
  4.697985E-01
  4.683176E-01
  4.674471E-01
  4.631512E-01
  4.620969E-01
  4.637765E-01
  4.686177E-01
  4.691019E-01
  4.684275E-01
  4.682427E-01
  4.729342E-01
  4.743055E-01
  4.727319E-01
  4.701605E-01
  4.736281E-01
  4.759989E-01
  4.752357E-01
  4.700143E-01
  4.681673E-01
  4.673571E-01
  4.681656E-01
  4.663271E-01
  4.659843E-01
  4.655454E-01
  4.681258E-01
  4.688597E-01
  4.692947E-01
  4.676567E-01
  4.691671E-01
  4.697747E-01
  4.699169E-01
  4.669048E-01
  4.666408E-01
  4.671851E-01
  4.699893E-01
  4.696017E-01
  4.683749E-01
  4.652997E-01
  4.657314E-01
  4.657309E-01
  4.661161E-01
  4.638889E-01
  4.632523E-01
  4.613687E-01
  4.614493E-01
  4.643393E-01
  4.707937E-01
  4.718499E-01
  4.720356E-01
  4.704977E-01
  4.718246E-01
  4.707330E-01
  4.715506E-01
  4.709872E-01
  4.725694E-01
  4.709725E-01
  4.704546E-01
  4.683920E-01
  4.693905E-01
  4.689284E-01
  4.716769E-01
  4.734205E-01
  4.749124E-01
  4.699882E-01
  4.665800E-01
  4.650050E-01
  4.681046E-01
  4.684128E-01
  4.700097E-01
  4.704282E-01
  4.727183E-01
  4.704068E-01
  4.686719E-01
  4.676127E-01
  4.722263E-01
  4.738541E-01
  4.732384E-01
  4.693890E-01
  4.707331E-01
  4.716844E-01
  4.719839E-01
  4.678006E-01
  4.669238E-01
  4.660598E-01
  4.675727E-01
  4.671260E-01
  4.688464E-01
  4.671226E-01
  4.655369E-01
  4.620269E-01
  4.628662E-01
  4.647207E-01
  4.704441E-01
  4.724864E-01
  4.721481E-01
  4.674342E-01
  4.677369E-01
  4.710406E-01
  4.774241E-01
  4.768753E-01
  4.724035E-01
  4.648619E-01
  4.631651E-01
  4.630622E-01
  4.658677E-01
  4.656833E-01
  4.654008E-01
  4.598956E-01
  4.612411E-01
  4.644334E-01
  4.681546E-01
  4.685953E-01
  4.689913E-01
  4.701035E-01
  4.717518E-01
  4.707600E-01
  4.703753E-01
  4.708724E-01
  4.718999E-01
  4.699834E-01
  4.679560E-01
  4.666611E-01
  4.669190E-01
  4.659830E-01
  4.667306E-01
  4.688733E-01
  4.709763E-01
  4.688653E-01
  4.660513E-01
  4.642282E-01
  4.647696E-01
  4.654195E-01
  4.681179E-01
  4.710183E-01
  4.732083E-01
  4.713157E-01
  4.675783E-01
  4.637928E-01
  4.637063E-01
  4.646902E-01
  4.662344E-01
  4.676723E-01
  4.711832E-01
  4.727469E-01
  4.711397E-01
  4.659282E-01
  4.615711E-01
  4.593589E-01
  4.621970E-01
  4.667895E-01
  4.698616E-01
  4.676798E-01
  4.641655E-01
  4.615015E-01
  4.628478E-01
  4.665539E-01
  4.717310E-01
  4.734652E-01
  4.718693E-01
  4.679146E-01
  4.667386E-01
  4.686802E-01
  4.735439E-01
  4.757457E-01
  4.740218E-01
  4.690210E-01
  4.663616E-01
  4.654712E-01
  4.654052E-01
  4.633790E-01
  4.615809E-01
  4.639236E-01
  4.629154E-01
  4.643978E-01
  4.673664E-01
  4.684913E-01
  4.685220E-01
  4.680445E-01
  4.679325E-01
  4.671992E-01
  4.673113E-01
  4.680817E-01
  4.696823E-01
  4.698468E-01
  4.684222E-01
  4.656100E-01
  4.640382E-01
  4.641811E-01
  4.674681E-01
  4.721947E-01
  4.752881E-01
  4.729256E-01
  4.680628E-01
  4.642657E-01
  4.636542E-01
  4.648877E-01
  4.687512E-01
  4.734426E-01
  4.763112E-01
  4.741479E-01
  4.695754E-01
  4.659883E-01
  4.659336E-01
  4.665324E-01
  4.660171E-01
  4.644805E-01
  4.652485E-01
  4.672985E-01
  4.686200E-01
  4.671459E-01
  4.644962E-01
  4.614881E-01
  4.613487E-01
  4.648765E-01
  4.701547E-01
  4.717324E-01
  4.694939E-01
  4.662122E-01
  4.663499E-01
  4.695754E-01
  4.733647E-01
  4.730142E-01
  4.691588E-01
  4.648703E-01
  4.645210E-01
  4.676943E-01
  4.723683E-01
  4.740056E-01
  4.721317E-01
  4.690168E-01
  4.691595E-01
  4.713299E-01
  4.726813E-01
  4.706767E-01
  4.673580E-01
  4.621878E-01
  4.650979E-01
  4.648552E-01
  4.670599E-01
  4.672374E-01
  4.704065E-01
  4.700342E-01
  4.695851E-01
  4.652370E-01
  4.657381E-01
  4.668023E-01
  4.701569E-01
  4.677794E-01
  4.661699E-01
  4.637398E-01
  4.668376E-01
  4.687767E-01
  4.731555E-01
  4.742535E-01
  4.762285E-01
  4.731932E-01
  4.711036E-01
  4.659045E-01
  4.634006E-01
  4.603014E-01
  4.637521E-01
  4.676716E-01
  4.732568E-01
  4.723178E-01
  4.703941E-01
  4.655488E-01
  4.656229E-01
  4.649321E-01
  4.666383E-01
  4.658553E-01
  4.686584E-01
  4.687354E-01
  4.696436E-01
  4.663463E-01
  4.646276E-01
  4.608317E-01
  4.624189E-01
  4.640698E-01
  4.676778E-01
  4.669733E-01
  4.689011E-01
  4.691043E-01
  4.720079E-01
  4.719518E-01
  4.727784E-01
  4.682763E-01
  4.654881E-01
  4.620732E-01
  4.630776E-01
  4.622460E-01
  4.651728E-01
  4.670391E-01
  4.712746E-01
  4.715542E-01
  4.736444E-01
  4.720626E-01
  4.702591E-01
  4.641812E-01
  4.627930E-01
  4.654880E-01
  4.678176E-01
  4.663779E-01
  4.694093E-01
  4.694154E-01
  4.714746E-01
  4.677007E-01
  4.661729E-01
  4.623239E-01
  4.644085E-01
  4.647148E-01
  4.684380E-01
  4.670072E-01
  4.669662E-01
  4.634557E-01
  4.660010E-01
  4.673169E-01
  4.720782E-01
  4.723925E-01
  4.751051E-01
  4.724480E-01
  4.713630E-01
  4.663683E-01
  4.656734E-01
  4.626507E-01
  4.646215E-01
  4.649716E-01
  4.694658E-01
  4.690493E-01
  4.702776E-01
  4.683821E-01
  4.718657E-01
  4.716137E-01
  4.715476E-01
  4.659095E-01
  4.655560E-01
  4.643505E-01
  4.670923E-01
  4.662346E-01
  4.692192E-01
  4.680174E-01
  4.686683E-01
  4.653781E-01
  4.664579E-01
  4.653617E-01
  4.686727E-01
  4.682123E-01
  4.700846E-01
  4.677983E-01
  4.682073E-01
  4.637447E-01
  4.628809E-01
  4.610925E-01
  4.649436E-01
  4.653090E-01
  4.682746E-01
  4.674376E-01
  4.701563E-01
  4.696130E-01
  4.724088E-01
  4.702626E-01
  4.694714E-01
  4.649953E-01
  4.661745E-01
  4.657730E-01
  4.681478E-01
  4.668285E-01
  4.669148E-01
  4.674528E-01
  4.697432E-01
  4.696522E-01
  4.686704E-01
  4.655633E-01
  4.648942E-01
  4.649990E-01
  4.664072E-01
  4.649521E-01
  4.640392E-01
  4.641055E-01
  4.676838E-01
  4.691356E-01
  4.687779E-01
  4.666712E-01
  4.683304E-01
  4.706091E-01
  4.723770E-01
  4.697888E-01
  4.668808E-01
  4.631370E-01
  4.612191E-01
  4.594871E-01
  4.617622E-01
  4.647066E-01
  4.671425E-01
  4.660730E-01
  4.667868E-01
  4.674983E-01
  4.682878E-01
  4.670702E-01
  4.680693E-01
  4.678065E-01
  4.669396E-01
  4.649249E-01
  4.664559E-01
  4.684244E-01
  4.706028E-01
  4.686292E-01
  4.654735E-01
  4.626649E-01
  4.649579E-01
  4.669764E-01
  4.673800E-01
  4.645518E-01
  4.629048E-01
  4.607957E-01
  4.618641E-01
  4.645878E-01
  4.687676E-01
  4.689436E-01
  4.681585E-01
  4.669997E-01
  4.687146E-01
  4.692616E-01
  4.690334E-01
  4.651745E-01
  4.616656E-01
  4.593511E-01
  4.623147E-01
  4.735296E-01
  4.696354E-01
  4.673233E-01
  4.652273E-01
  4.675584E-01
  4.674295E-01
  4.686552E-01
  4.674097E-01
  4.682328E-01
  4.656261E-01
  4.649282E-01
  4.633652E-01
  4.653926E-01
  4.651132E-01
  4.676322E-01
  4.688802E-01
  4.710535E-01
  4.678895E-01
  4.673481E-01
  4.685095E-01
  4.736940E-01
  4.731927E-01
  4.713030E-01
  4.672787E-01
  4.668502E-01
  4.631877E-01
  4.614534E-01
  4.606683E-01
  4.651460E-01
  4.657462E-01
  4.660899E-01
  4.653010E-01
  4.686241E-01
  4.678866E-01
  4.671459E-01
  4.650211E-01
  4.664962E-01
  4.647790E-01
  4.656214E-01
  4.669664E-01
  4.713746E-01
  4.703206E-01
  4.688261E-01
  4.658307E-01
  4.676540E-01
  4.678805E-01
  4.680310E-01
  4.633752E-01
  4.618633E-01
  4.607158E-01
  4.629228E-01
  4.632012E-01
  4.677080E-01
  4.715826E-01
  4.759416E-01
  4.734232E-01
  4.699074E-01
  4.643178E-01
  4.631452E-01
  4.609605E-01
  4.616187E-01
  4.618897E-01
  4.673223E-01
  4.709680E-01
  4.770225E-01
  4.724786E-01
  4.685837E-01
  4.638594E-01
  4.653398E-01
  4.656736E-01
  4.691058E-01
  4.689794E-01
  4.702673E-01
  4.672194E-01
  4.670365E-01
  4.644022E-01
  4.644602E-01
  4.627972E-01
  4.679815E-01
  4.728360E-01
  4.772144E-01
  4.725065E-01
  4.693902E-01
  4.680170E-01
  4.732214E-01
  4.729337E-01
  4.704071E-01
  4.638721E-01
  4.627073E-01
  4.597822E-01
  4.600962E-01
  4.605196E-01
  4.660242E-01
  4.649240E-01
  4.621031E-01
  4.584595E-01
  4.632927E-01
  4.670011E-01
  4.717901E-01
  4.716497E-01
  4.719059E-01
  4.666533E-01
  4.646981E-01
  4.628379E-01
  4.656681E-01
  4.650574E-01
  4.664666E-01
  4.654231E-01
  4.688025E-01
  4.692360E-01
  4.692480E-01
  4.633660E-01
  4.620902E-01
  4.618935E-01
  4.659036E-01
  4.663085E-01
  4.700804E-01
  4.714772E-01
  4.734462E-01
  4.686564E-01
  4.655371E-01
  4.613712E-01
  4.616694E-01
  4.587953E-01
  4.591911E-01
  4.599584E-01
  4.676482E-01
  4.730028E-01
  4.815010E-01
  4.755467E-01
  4.699442E-01
  4.669170E-01
  4.668399E-01
  4.654017E-01
  4.639483E-01
  4.636699E-01
  4.661926E-01
  4.673230E-01
  4.671495E-01
  4.654092E-01
  4.641505E-01
  4.627109E-01
  4.647011E-01
  4.691018E-01
  4.733405E-01
  4.725715E-01
  4.702432E-01
  4.690621E-01
  4.703981E-01
  4.693380E-01
  4.662999E-01
  4.631145E-01
  4.631159E-01
  4.630216E-01
  4.634915E-01
  4.652241E-01
  4.684780E-01
  4.673993E-01
  4.641106E-01
  4.635739E-01
  4.690387E-01
  4.736021E-01
  4.741994E-01
  4.709542E-01
  4.681514E-01
  4.653941E-01
  4.650455E-01
  4.658981E-01
  4.666903E-01
  4.645061E-01
  4.641464E-01
  4.676176E-01
  4.735404E-01
  4.742754E-01
  4.691621E-01
  4.617205E-01
  4.599140E-01
  4.633227E-01
  4.681806E-01
  4.690281E-01
  4.691006E-01
  4.700340E-01
  4.715116E-01
  4.687463E-01
  4.643272E-01
  4.609881E-01
  4.610502E-01
  4.610058E-01
  4.623505E-01
  4.665668E-01
  4.750284E-01
  4.811771E-01
  4.756166E-01
  4.736668E-01
  4.694431E-01
  4.669146E-01
  4.658669E-01
  4.654774E-01
  4.641230E-01
  4.637848E-01
  4.643878E-01
  4.661831E-01
  4.670662E-01
  4.662649E-01
  4.624775E-01
  4.594924E-01
  4.601676E-01
  4.647676E-01
  4.681461E-01
  4.683137E-01
  4.654256E-01
  4.635119E-01
  4.639411E-01
  4.663832E-01
  4.669086E-01
  4.657788E-01
  4.640088E-01
  4.632336E-01
  4.630109E-01
  4.656007E-01
  4.686964E-01
  4.686830E-01
  4.649833E-01
  4.644969E-01
  4.688376E-01
  4.742452E-01
  4.751430E-01
  4.725048E-01
  4.682585E-01
  4.656472E-01
  4.646145E-01
  4.649688E-01
  4.644406E-01
  4.642077E-01
  4.651277E-01
  4.686448E-01
  4.718304E-01
  4.720717E-01
  4.673769E-01
  4.619563E-01
  4.597087E-01
  4.624650E-01
  4.658913E-01
  4.676766E-01
  4.676091E-01
  4.680055E-01
  4.668015E-01
  4.641361E-01
  4.623463E-01
  4.649679E-01
  4.685038E-01
  4.695032E-01
  4.673459E-01
  4.668855E-01
  4.695167E-01
  4.740052E-01
  4.727904E-01
  4.694131E-01
  4.688450E-01
  4.668067E-01
  4.680528E-01
  4.654052E-01
  4.643275E-01
  4.611365E-01
  4.624129E-01
  4.618186E-01
  4.640111E-01
  4.633914E-01
  4.650233E-01
  4.629844E-01
  4.632926E-01
  4.611675E-01
  4.624588E-01
  4.614929E-01
  4.628518E-01
  4.606763E-01
  4.623053E-01
  4.640529E-01
  4.699189E-01
  4.711963E-01
  4.721505E-01
  4.684554E-01
  4.683287E-01
  4.680608E-01
  4.713756E-01
  4.696801E-01
  4.696635E-01
  4.696265E-01
  4.747207E-01
  4.743140E-01
  4.713209E-01
  4.639148E-01
  4.626533E-01
  4.626141E-01
  4.667227E-01
  4.674181E-01
  4.690025E-01
  4.660653E-01
  4.669565E-01
  4.682010E-01
  4.722610E-01
  4.692209E-01
  4.653861E-01
  4.596368E-01
  4.599849E-01
  4.602695E-01
  4.637845E-01
  4.634428E-01
  4.656751E-01
  4.665135E-01
  4.700339E-01
  4.685326E-01
  4.691886E-01
  4.695080E-01
  4.742680E-01
  4.744801E-01
  4.745381E-01
  4.711836E-01
  4.723183E-01
  4.717636E-01
  4.666321E-01
  4.651217E-01
  4.686860E-01
  4.646939E-01
  4.673700E-01
  4.648933E-01
  4.691167E-01
  4.647191E-01
  4.644075E-01
  4.586266E-01
  4.627637E-01
  4.624710E-01
  4.679527E-01
  4.663343E-01
  4.708661E-01
  4.669759E-01
  4.671088E-01
  4.606379E-01
  4.617128E-01
  4.574479E-01
  4.623104E-01
  4.645973E-01
  4.735429E-01
  4.715787E-01
  4.719694E-01
  4.657356E-01
  4.687469E-01
  4.680997E-01
  4.734252E-01
  4.685417E-01
  4.682051E-01
  4.643751E-01
  4.703018E-01
  4.685526E-01
  4.697033E-01
  4.636219E-01
  4.662407E-01
  4.639436E-01
  4.671046E-01
  4.628349E-01
  4.660734E-01
  4.645334E-01
  4.695427E-01
  4.668178E-01
  4.689106E-01
  4.635735E-01
  4.652974E-01
  4.619838E-01
  4.652092E-01