# vtk DataFile Version 2.0
title
ASCII
DATASET STRUCTURED_GRID
DIMENSIONS   64   64    1
POINTS   4096  float
  0.000000E+00  0.000000E+00  0.000000E+00
  0.000000E+00  3.906250E-01  0.000000E+00
  0.000000E+00  7.812500E-01  0.000000E+00
  0.000000E+00  1.171875E+00  0.000000E+00
  0.000000E+00  1.562500E+00  0.000000E+00
  0.000000E+00  1.953125E+00  0.000000E+00
  0.000000E+00  2.343750E+00  0.000000E+00
  0.000000E+00  2.734375E+00  0.000000E+00
  0.000000E+00  3.125000E+00  0.000000E+00
  0.000000E+00  3.515625E+00  0.000000E+00
  0.000000E+00  3.906250E+00  0.000000E+00
  0.000000E+00  4.296875E+00  0.000000E+00
  0.000000E+00  4.687500E+00  0.000000E+00
  0.000000E+00  5.078125E+00  0.000000E+00
  0.000000E+00  5.468750E+00  0.000000E+00
  0.000000E+00  5.859375E+00  0.000000E+00
  0.000000E+00  6.250000E+00  0.000000E+00
  0.000000E+00  6.640625E+00  0.000000E+00
  0.000000E+00  7.031250E+00  0.000000E+00
  0.000000E+00  7.421875E+00  0.000000E+00
  0.000000E+00  7.812500E+00  0.000000E+00
  0.000000E+00  8.203125E+00  0.000000E+00
  0.000000E+00  8.593750E+00  0.000000E+00
  0.000000E+00  8.984375E+00  0.000000E+00
  0.000000E+00  9.375000E+00  0.000000E+00
  0.000000E+00  9.765625E+00  0.000000E+00
  0.000000E+00  1.015625E+01  0.000000E+00
  0.000000E+00  1.054688E+01  0.000000E+00
  0.000000E+00  1.093750E+01  0.000000E+00
  0.000000E+00  1.132812E+01  0.000000E+00
  0.000000E+00  1.171875E+01  0.000000E+00
  0.000000E+00  1.210938E+01  0.000000E+00
  0.000000E+00  1.250000E+01  0.000000E+00
  0.000000E+00  1.289062E+01  0.000000E+00
  0.000000E+00  1.328125E+01  0.000000E+00
  0.000000E+00  1.367188E+01  0.000000E+00
  0.000000E+00  1.406250E+01  0.000000E+00
  0.000000E+00  1.445312E+01  0.000000E+00
  0.000000E+00  1.484375E+01  0.000000E+00
  0.000000E+00  1.523438E+01  0.000000E+00
  0.000000E+00  1.562500E+01  0.000000E+00
  0.000000E+00  1.601562E+01  0.000000E+00
  0.000000E+00  1.640625E+01  0.000000E+00
  0.000000E+00  1.679688E+01  0.000000E+00
  0.000000E+00  1.718750E+01  0.000000E+00
  0.000000E+00  1.757812E+01  0.000000E+00
  0.000000E+00  1.796875E+01  0.000000E+00
  0.000000E+00  1.835938E+01  0.000000E+00
  0.000000E+00  1.875000E+01  0.000000E+00
  0.000000E+00  1.914062E+01  0.000000E+00
  0.000000E+00  1.953125E+01  0.000000E+00
  0.000000E+00  1.992188E+01  0.000000E+00
  0.000000E+00  2.031250E+01  0.000000E+00
  0.000000E+00  2.070312E+01  0.000000E+00
  0.000000E+00  2.109375E+01  0.000000E+00
  0.000000E+00  2.148438E+01  0.000000E+00
  0.000000E+00  2.187500E+01  0.000000E+00
  0.000000E+00  2.226562E+01  0.000000E+00
  0.000000E+00  2.265625E+01  0.000000E+00
  0.000000E+00  2.304688E+01  0.000000E+00
  0.000000E+00  2.343750E+01  0.000000E+00
  0.000000E+00  2.382812E+01  0.000000E+00
  0.000000E+00  2.421875E+01  0.000000E+00
  0.000000E+00  2.460938E+01  0.000000E+00
  3.906250E-01  0.000000E+00  0.000000E+00
  3.906250E-01  3.906250E-01  0.000000E+00
  3.906250E-01  7.812500E-01  0.000000E+00
  3.906250E-01  1.171875E+00  0.000000E+00
  3.906250E-01  1.562500E+00  0.000000E+00
  3.906250E-01  1.953125E+00  0.000000E+00
  3.906250E-01  2.343750E+00  0.000000E+00
  3.906250E-01  2.734375E+00  0.000000E+00
  3.906250E-01  3.125000E+00  0.000000E+00
  3.906250E-01  3.515625E+00  0.000000E+00
  3.906250E-01  3.906250E+00  0.000000E+00
  3.906250E-01  4.296875E+00  0.000000E+00
  3.906250E-01  4.687500E+00  0.000000E+00
  3.906250E-01  5.078125E+00  0.000000E+00
  3.906250E-01  5.468750E+00  0.000000E+00
  3.906250E-01  5.859375E+00  0.000000E+00
  3.906250E-01  6.250000E+00  0.000000E+00
  3.906250E-01  6.640625E+00  0.000000E+00
  3.906250E-01  7.031250E+00  0.000000E+00
  3.906250E-01  7.421875E+00  0.000000E+00
  3.906250E-01  7.812500E+00  0.000000E+00
  3.906250E-01  8.203125E+00  0.000000E+00
  3.906250E-01  8.593750E+00  0.000000E+00
  3.906250E-01  8.984375E+00  0.000000E+00
  3.906250E-01  9.375000E+00  0.000000E+00
  3.906250E-01  9.765625E+00  0.000000E+00
  3.906250E-01  1.015625E+01  0.000000E+00
  3.906250E-01  1.054688E+01  0.000000E+00
  3.906250E-01  1.093750E+01  0.000000E+00
  3.906250E-01  1.132812E+01  0.000000E+00
  3.906250E-01  1.171875E+01  0.000000E+00
  3.906250E-01  1.210938E+01  0.000000E+00
  3.906250E-01  1.250000E+01  0.000000E+00
  3.906250E-01  1.289062E+01  0.000000E+00
  3.906250E-01  1.328125E+01  0.000000E+00
  3.906250E-01  1.367188E+01  0.000000E+00
  3.906250E-01  1.406250E+01  0.000000E+00
  3.906250E-01  1.445312E+01  0.000000E+00
  3.906250E-01  1.484375E+01  0.000000E+00
  3.906250E-01  1.523438E+01  0.000000E+00
  3.906250E-01  1.562500E+01  0.000000E+00
  3.906250E-01  1.601562E+01  0.000000E+00
  3.906250E-01  1.640625E+01  0.000000E+00
  3.906250E-01  1.679688E+01  0.000000E+00
  3.906250E-01  1.718750E+01  0.000000E+00
  3.906250E-01  1.757812E+01  0.000000E+00
  3.906250E-01  1.796875E+01  0.000000E+00
  3.906250E-01  1.835938E+01  0.000000E+00
  3.906250E-01  1.875000E+01  0.000000E+00
  3.906250E-01  1.914062E+01  0.000000E+00
  3.906250E-01  1.953125E+01  0.000000E+00
  3.906250E-01  1.992188E+01  0.000000E+00
  3.906250E-01  2.031250E+01  0.000000E+00
  3.906250E-01  2.070312E+01  0.000000E+00
  3.906250E-01  2.109375E+01  0.000000E+00
  3.906250E-01  2.148438E+01  0.000000E+00
  3.906250E-01  2.187500E+01  0.000000E+00
  3.906250E-01  2.226562E+01  0.000000E+00
  3.906250E-01  2.265625E+01  0.000000E+00
  3.906250E-01  2.304688E+01  0.000000E+00
  3.906250E-01  2.343750E+01  0.000000E+00
  3.906250E-01  2.382812E+01  0.000000E+00
  3.906250E-01  2.421875E+01  0.000000E+00
  3.906250E-01  2.460938E+01  0.000000E+00
  7.812500E-01  0.000000E+00  0.000000E+00
  7.812500E-01  3.906250E-01  0.000000E+00
  7.812500E-01  7.812500E-01  0.000000E+00
  7.812500E-01  1.171875E+00  0.000000E+00
  7.812500E-01  1.562500E+00  0.000000E+00
  7.812500E-01  1.953125E+00  0.000000E+00
  7.812500E-01  2.343750E+00  0.000000E+00
  7.812500E-01  2.734375E+00  0.000000E+00
  7.812500E-01  3.125000E+00  0.000000E+00
  7.812500E-01  3.515625E+00  0.000000E+00
  7.812500E-01  3.906250E+00  0.000000E+00
  7.812500E-01  4.296875E+00  0.000000E+00
  7.812500E-01  4.687500E+00  0.000000E+00
  7.812500E-01  5.078125E+00  0.000000E+00
  7.812500E-01  5.468750E+00  0.000000E+00
  7.812500E-01  5.859375E+00  0.000000E+00
  7.812500E-01  6.250000E+00  0.000000E+00
  7.812500E-01  6.640625E+00  0.000000E+00
  7.812500E-01  7.031250E+00  0.000000E+00
  7.812500E-01  7.421875E+00  0.000000E+00
  7.812500E-01  7.812500E+00  0.000000E+00
  7.812500E-01  8.203125E+00  0.000000E+00
  7.812500E-01  8.593750E+00  0.000000E+00
  7.812500E-01  8.984375E+00  0.000000E+00
  7.812500E-01  9.375000E+00  0.000000E+00
  7.812500E-01  9.765625E+00  0.000000E+00
  7.812500E-01  1.015625E+01  0.000000E+00
  7.812500E-01  1.054688E+01  0.000000E+00
  7.812500E-01  1.093750E+01  0.000000E+00
  7.812500E-01  1.132812E+01  0.000000E+00
  7.812500E-01  1.171875E+01  0.000000E+00
  7.812500E-01  1.210938E+01  0.000000E+00
  7.812500E-01  1.250000E+01  0.000000E+00
  7.812500E-01  1.289062E+01  0.000000E+00
  7.812500E-01  1.328125E+01  0.000000E+00
  7.812500E-01  1.367188E+01  0.000000E+00
  7.812500E-01  1.406250E+01  0.000000E+00
  7.812500E-01  1.445312E+01  0.000000E+00
  7.812500E-01  1.484375E+01  0.000000E+00
  7.812500E-01  1.523438E+01  0.000000E+00
  7.812500E-01  1.562500E+01  0.000000E+00
  7.812500E-01  1.601562E+01  0.000000E+00
  7.812500E-01  1.640625E+01  0.000000E+00
  7.812500E-01  1.679688E+01  0.000000E+00
  7.812500E-01  1.718750E+01  0.000000E+00
  7.812500E-01  1.757812E+01  0.000000E+00
  7.812500E-01  1.796875E+01  0.000000E+00
  7.812500E-01  1.835938E+01  0.000000E+00
  7.812500E-01  1.875000E+01  0.000000E+00
  7.812500E-01  1.914062E+01  0.000000E+00
  7.812500E-01  1.953125E+01  0.000000E+00
  7.812500E-01  1.992188E+01  0.000000E+00
  7.812500E-01  2.031250E+01  0.000000E+00
  7.812500E-01  2.070312E+01  0.000000E+00
  7.812500E-01  2.109375E+01  0.000000E+00
  7.812500E-01  2.148438E+01  0.000000E+00
  7.812500E-01  2.187500E+01  0.000000E+00
  7.812500E-01  2.226562E+01  0.000000E+00
  7.812500E-01  2.265625E+01  0.000000E+00
  7.812500E-01  2.304688E+01  0.000000E+00
  7.812500E-01  2.343750E+01  0.000000E+00
  7.812500E-01  2.382812E+01  0.000000E+00
  7.812500E-01  2.421875E+01  0.000000E+00
  7.812500E-01  2.460938E+01  0.000000E+00
  1.171875E+00  0.000000E+00  0.000000E+00
  1.171875E+00  3.906250E-01  0.000000E+00
  1.171875E+00  7.812500E-01  0.000000E+00
  1.171875E+00  1.171875E+00  0.000000E+00
  1.171875E+00  1.562500E+00  0.000000E+00
  1.171875E+00  1.953125E+00  0.000000E+00
  1.171875E+00  2.343750E+00  0.000000E+00
  1.171875E+00  2.734375E+00  0.000000E+00
  1.171875E+00  3.125000E+00  0.000000E+00
  1.171875E+00  3.515625E+00  0.000000E+00
  1.171875E+00  3.906250E+00  0.000000E+00
  1.171875E+00  4.296875E+00  0.000000E+00
  1.171875E+00  4.687500E+00  0.000000E+00
  1.171875E+00  5.078125E+00  0.000000E+00
  1.171875E+00  5.468750E+00  0.000000E+00
  1.171875E+00  5.859375E+00  0.000000E+00
  1.171875E+00  6.250000E+00  0.000000E+00
  1.171875E+00  6.640625E+00  0.000000E+00
  1.171875E+00  7.031250E+00  0.000000E+00
  1.171875E+00  7.421875E+00  0.000000E+00
  1.171875E+00  7.812500E+00  0.000000E+00
  1.171875E+00  8.203125E+00  0.000000E+00
  1.171875E+00  8.593750E+00  0.000000E+00
  1.171875E+00  8.984375E+00  0.000000E+00
  1.171875E+00  9.375000E+00  0.000000E+00
  1.171875E+00  9.765625E+00  0.000000E+00
  1.171875E+00  1.015625E+01  0.000000E+00
  1.171875E+00  1.054688E+01  0.000000E+00
  1.171875E+00  1.093750E+01  0.000000E+00
  1.171875E+00  1.132812E+01  0.000000E+00
  1.171875E+00  1.171875E+01  0.000000E+00
  1.171875E+00  1.210938E+01  0.000000E+00
  1.171875E+00  1.250000E+01  0.000000E+00
  1.171875E+00  1.289062E+01  0.000000E+00
  1.171875E+00  1.328125E+01  0.000000E+00
  1.171875E+00  1.367188E+01  0.000000E+00
  1.171875E+00  1.406250E+01  0.000000E+00
  1.171875E+00  1.445312E+01  0.000000E+00
[...]
POINT_DATA   4096
SCALARS CON  float  1
LOOKUP_TABLE default
  4.711756E-01
  4.745072E-01
  4.843375E-01
  4.793204E-01
  4.793287E-01
  4.692745E-01
  4.716915E-01
  4.689908E-01
  4.777727E-01
  4.757029E-01
  4.791519E-01
  4.697176E-01
  4.690671E-01
  4.616613E-01
  4.676067E-01
  4.673118E-01
  4.767789E-01
  4.746047E-01
  4.785179E-01
  4.705035E-01
  4.710776E-01
  4.626684E-01
  4.641285E-01
  4.566618E-01
  4.593142E-01
  4.547850E-01
  4.626843E-01
  4.641052E-01
  4.754103E-01
  4.748256E-01
  4.795017E-01
  4.716625E-01
  4.731060E-01
  4.675514E-01
  4.739052E-01
  4.713388E-01
  4.760380E-01
  4.683349E-01
  4.682588E-01
  4.592607E-01
  4.612807E-01
  4.554120E-01
  4.590326E-01
  4.529209E-01
  4.564898E-01
  4.534383E-01
  4.641291E-01
  4.695658E-01
  4.845725E-01
  4.846475E-01
  4.853622E-01
  4.697942E-01
  4.632810E-01
  4.539710E-01
  4.638130E-01
  4.727913E-01
  4.932457E-01
  4.981588E-01
  5.018894E-01
  4.868673E-01
  4.780093E-01
  4.624767E-01
  4.623981E-01
  4.597206E-01
  4.725453E-01
  4.777720E-01
  4.889258E-01
  4.867024E-01
  4.854552E-01
  4.728212E-01
  4.691057E-01
  4.627294E-01
  4.692407E-01
  4.709320E-01
  4.792818E-01
  4.763154E-01
  4.771934E-01
  4.687366E-01
  4.689622E-01
  4.645107E-01
  4.704761E-01
  4.698365E-01
  4.754201E-01
  4.705619E-01
  4.710162E-01
  4.633818E-01
  4.646119E-01
  4.601551E-01
  4.645421E-01
  4.617843E-01
  4.667535E-01
  4.648059E-01
  4.715609E-01
  4.713890E-01
  4.781346E-01
  4.749753E-01
  4.766462E-01
  4.687368E-01
  4.683048E-01
  4.618884E-01
  4.653439E-01
  4.627663E-01
  4.676601E-01
  4.632603E-01
  4.641697E-01
  4.559177E-01
  4.550551E-01
  4.481038E-01
  4.514290E-01
  4.511388E-01
  4.625307E-01
  4.691283E-01
  4.822729E-01
  4.819128E-01
  4.813594E-01
  4.682573E-01
  4.644711E-01
  4.606938E-01
  4.736620E-01
  4.846250E-01
  5.013038E-01
  5.012112E-01
  4.982592E-01
  4.814186E-01
  4.727040E-01
  4.610561E-01
  4.626152E-01
  4.617543E-01
  4.630554E-01
  4.772017E-01
  4.901039E-01
  4.916994E-01
  4.859066E-01
  4.732571E-01
  4.649321E-01
  4.606390E-01
  4.647513E-01
  4.698459E-01
  4.763933E-01
  4.771810E-01
  4.763321E-01
  4.713272E-01
  4.691030E-01
  4.667393E-01
  4.685143E-01
  4.688849E-01
  4.710761E-01
  4.700850E-01
  4.704295E-01
  4.680885E-01
  4.676980E-01
  4.649349E-01
  4.644123E-01
  4.622988E-01
  4.635521E-01
  4.638018E-01
  4.665939E-01
  4.662814E-01
  4.666256E-01
  4.637632E-01
  4.635109E-01
  4.626529E-01
  4.656191E-01
  4.667930E-01
  4.689931E-01
  4.669680E-01
  4.653668E-01
  4.605939E-01
  4.577750E-01
  4.530043E-01
  4.510486E-01
  4.482212E-01
  4.499163E-01
  4.529045E-01
  4.617662E-01
  4.705612E-01
  4.800667E-01
  4.818261E-01
  4.787655E-01
  4.690665E-01
  4.627043E-01
  4.605558E-01
  4.692294E-01
  4.820193E-01
  4.966950E-01
  5.011536E-01
  4.963069E-01
  4.803492E-01
  4.644036E-01
  4.504500E-01
  4.467016E-01
  4.499488E-01
  4.635971E-01
  4.784659E-01
  4.864923E-01
  4.914390E-01
  4.817520E-01
  4.707065E-01
  4.557733E-01
  4.518557E-01
  4.516340E-01
  4.624200E-01
  4.703926E-01
  4.797807E-01
  4.781989E-01
  4.758568E-01
  4.669044E-01
  4.647258E-01
  4.621502E-01
  4.679410E-01
  4.701543E-01
  4.753324E-01
  4.728642E-01
  4.731211E-01
  4.685595E-01
  4.696626E-01
  4.666514E-01
  4.677811E-01
  4.632500E-01
  4.632707E-01
  4.600775E-01
  4.638140E-01
  4.643189E-01
  4.687598E-01
  4.658584E-01
  4.648773E-01
  4.584459E-01
  4.586204E-01
  4.576418E-01
  4.639629E-01
  4.654798E-01
  4.687428E-01
  4.635162E-01
  4.607792E-01
  4.540309E-01
  4.547970E-01
  4.545034E-01
  4.617424E-01
  4.657499E-01
  4.740008E-01
  4.749188E-01
  4.762411E-01
  4.687577E-01
  4.646838E-01
  4.588939E-01
  4.638403E-01
  4.702692E-01
  4.837688E-01
  4.889241E-01
  4.906394E-01
  4.795187E-01
  4.694940E-01
  4.563777E-01
  4.525031E-01
  4.493987E-01
  4.562836E-01
  4.580853E-01
  4.766059E-01
  4.815418E-01
  4.880388E-01
  4.746192E-01
  4.666718E-01
  4.505281E-01
  4.509491E-01
  4.486550E-01
  4.613533E-01
  4.649600E-01
  4.758692E-01
  4.716192E-01
  4.736650E-01
  4.644178E-01
  4.671136E-01
  4.627167E-01
  4.710540E-01
  4.701060E-01
  4.783537E-01
  4.740014E-01
  4.774740E-01
  4.689834E-01
  4.699934E-01
  4.609803E-01
  4.629964E-01
  4.562469E-01
  4.611043E-01
  4.569417E-01
  4.632244E-01
  4.589660E-01
  4.641927E-01
  4.588930E-01
  4.641344E-01
  4.601997E-01
  4.673266E-01
  4.644164E-01
  4.707585E-01
  4.652283E-01
  4.681721E-01
  4.599890E-01
  4.624680E-01
  4.566498E-01
  4.633502E-01
  4.618970E-01
  4.714329E-01
  4.701725E-01
  4.773841E-01
  4.717763E-01
  4.736555E-01
  4.632320E-01
  4.626280E-01
  4.539144E-01
  4.593192E-01
  4.592769E-01
  4.723781E-01
  4.745463E-01
  4.823075E-01
  4.732677E-01
  4.694039E-01
  4.538653E-01
  4.508331E-01
  4.431838E-01
  4.524777E-01
  4.644767E-01
  4.765513E-01
  4.759752E-01
  4.819691E-01
  4.694217E-01
  4.638473E-01
  4.473672E-01
  4.474284E-01
  4.435715E-01
  4.571777E-01
  4.617427E-01
  4.751954E-01
  4.712112E-01
  4.732994E-01
  4.619721E-01
  4.645883E-01
  4.608206E-01
  4.728863E-01
  4.744020E-01
  4.843785E-01
  4.775600E-01
  4.783208E-01
  4.664762E-01
  4.675028E-01
  4.589164E-01
  4.627255E-01
  4.554154E-01
  4.603082E-01
  4.559414E-01
  4.657698E-01
  4.656832E-01
  4.757219E-01
  4.702245E-01
  4.721109E-01
  4.610558E-01
  4.637553E-01
  4.594027E-01
  4.698196E-01
  4.686666E-01
  4.758691E-01
  4.679449E-01
  4.704033E-01
  4.634936E-01
  4.716309E-01
  4.706405E-01
  4.806030E-01
  4.758522E-01
  4.789130E-01
  4.677315E-01
  4.671871E-01
  4.559164E-01
  4.581541E-01
  4.521179E-01
  4.607210E-01
  4.600306E-01
  4.704221E-01
  4.664730E-01
  4.704227E-01
  4.607271E-01
  4.628847E-01
  4.555310E-01
  4.614339E-01
  4.571474E-01
  4.655260E-01
  4.624685E-01
  4.722522E-01
  4.722488E-01
  4.765768E-01
  4.672966E-01
  4.638122E-01
  4.529318E-01
  4.544690E-01
  4.523735E-01
  4.619461E-01
  4.635479E-01
  4.713035E-01
  4.668854E-01
  4.685055E-01
  4.618509E-01
  4.664201E-01
  4.661329E-01
  4.767510E-01
  4.784779E-01
  4.854870E-01
  4.790557E-01
  4.771951E-01
  4.650568E-01
  4.621393E-01
  4.531117E-01
  4.555054E-01
  4.523610E-01
  4.597924E-01
  4.598756E-01
  4.683411E-01
  4.672762E-01
  4.732431E-01
  4.693851E-01
  4.736614E-01
  4.699685E-01
  4.756348E-01
  4.728598E-01
  4.774384E-01
  4.714576E-01
  4.723867E-01
  4.647761E-01
  4.677310E-01
  4.654512E-01
  4.743407E-01
  4.751665E-01
  4.823398E-01
  4.771402E-01
  4.772101E-01
  4.672665E-01
  4.662785E-01
  4.581728E-01
  4.599256E-01
  4.544273E-01
  4.584774E-01
  4.552847E-01
  4.615674E-01
  4.598314E-01
  4.662025E-01
  4.629583E-01
  4.667646E-01
  4.608638E-01
  4.630121E-01
  4.575681E-01
  4.628306E-01
  4.676823E-01
  4.687403E-01
  4.686089E-01
  4.715857E-01
  4.692338E-01
  4.670267E-01
  4.606299E-01
  4.590153E-01
  4.582856E-01
  4.643168E-01
  4.685748E-01
  4.736601E-01
  4.713614E-01
  4.686598E-01
  4.628311E-01
  4.636915E-01
  4.669583E-01
  4.770948E-01
  4.835221E-01
  4.876300E-01
  4.814908E-01
  4.737097E-01
  4.627454E-01
  4.582492E-01
  4.550121E-01
  4.577318E-01
  4.586476E-01
  4.630058E-01
  4.651791E-01
  4.717154E-01
  4.758045E-01
  4.814294E-01
  4.804217E-01
  4.788601E-01
  4.729452E-01
  4.718831E-01
  4.710476E-01
  4.752509E-01
  4.754627E-01
  4.757790E-01
  4.707252E-01
  4.691836E-01
  4.676841E-01
  4.726291E-01
  4.756445E-01
  4.796129E-01
  4.766123E-01
  4.735688E-01
  4.666751E-01
  4.640661E-01
  4.604670E-01
  4.617647E-01
  4.614176E-01
  4.647586E-01
  4.646963E-01
  4.661605E-01
  4.627891E-01
  4.618507E-01
  4.594074E-01
  4.628800E-01
  4.655122E-01
  4.709389E-01
  4.708463E-01
  4.711409E-01
  4.607982E-01
  4.616482E-01
  4.657627E-01
  4.687897E-01
  4.719107E-01
  4.717881E-01
  4.719328E-01
  4.709176E-01
  4.724058E-01
  4.732974E-01
  4.750253E-01
  4.733759E-01
  4.708751E-01
  4.662354E-01
  4.646947E-01
  4.654037E-01
  4.712844E-01
  4.776410E-01
  4.838679E-01
  4.840112E-01
  4.798973E-01
  4.706331E-01
  4.624580E-01
  4.557070E-01
  4.547392E-01
  4.567172E-01
  4.628390E-01
  4.679915E-01
  4.728510E-01
  4.737421E-01
  4.740070E-01
  4.723114E-01
  4.728993E-01
  4.738333E-01
  4.776541E-01
  4.801894E-01
  4.822307E-01
  4.795667E-01
  4.751664E-01
  4.681099E-01
  4.637673E-01
  4.613131E-01
  4.637706E-01
  4.669331E-01
  4.712623E-01
  4.722016E-01
  4.722660E-01
  4.698878E-01
  4.693397E-01
  4.684717E-01
  4.695375E-01
  4.688045E-01
  4.685602E-01
  4.663303E-01
  4.656519E-01
  4.644377E-01
  4.657183E-01
  4.664964E-01
  4.688976E-01
  4.692851E-01
  4.696669E-01
  4.669883E-01
  4.645896E-01
  4.610954E-01
  4.611008E-01
  4.579683E-01
  4.620260E-01
  4.665580E-01
  4.739923E-01
  4.758958E-01
  4.772263E-01
  4.741787E-01
  4.748237E-01
  4.746418E-01
  4.779962E-01
  4.768280E-01
  4.751503E-01
  4.682344E-01
  4.646605E-01
  4.621871E-01
  4.677703E-01
  4.740990E-01
  4.822859E-01
  4.822336E-01
  4.782528E-01
  4.676579E-01
  4.610194E-01
  4.565594E-01
  4.604985E-01
  4.652519E-01
  4.730536E-01
  4.757489E-01
  4.783244E-01
  4.763600E-01
  4.768997E-01
  4.748047E-01
  4.752276E-01
  4.723761E-01
  4.724871E-01
  4.709519E-01
  4.734165E-01
  4.730145E-01
  4.736052E-01
  4.690109E-01
  4.660395E-01
  4.613699E-01
  4.621282E-01
  4.626356E-01
  4.668106E-01
  4.674176E-01
  4.695444E-01
  4.683968E-01
  4.704171E-01
  4.700796E-01
  4.723329E-01
  4.712642E-01
  4.728561E-01
  4.721260E-01
  4.745027E-01
  4.734315E-01
  4.736854E-01
  4.701553E-01
  4.699946E-01
  4.688521E-01
  4.717622E-01
  4.710554E-01
  4.704096E-01
  4.644241E-01
  4.527180E-01
  4.539677E-01
  4.594398E-01
  4.659040E-01
  4.730597E-01
  4.772680E-01
  4.796495E-01
  4.791287E-01
  4.787776E-01
  4.774911E-01
  4.767161E-01
  4.738218E-01
  4.703768E-01
  4.656505E-01
  4.633422E-01
  4.632322E-01
  4.672722E-01
  4.721620E-01
  4.769532E-01
  4.772361E-01
  4.739766E-01
  4.670032E-01
  4.612489E-01
  4.579518E-01
  4.605025E-01
  4.666471E-01
  4.754398E-01
  4.811402E-01
  4.824920E-01
  4.774704E-01
  4.705797E-01
  4.639174E-01
  4.621617E-01
  4.641696E-01
  4.700183E-01
  4.747238E-01
  4.770126E-01
  4.738773E-01
  4.683823E-01
  4.615365E-01
  4.577156E-01
  4.562243E-01
  4.582016E-01
  4.603317E-01
  4.630918E-01
  4.644366E-01
  4.667802E-01
  4.689905E-01
  4.726200E-01
  4.746741E-01
  4.756284E-01
  4.734203E-01
  4.710182E-01
  4.685592E-01
  4.693101E-01
  4.716611E-01
  4.762124E-01
  4.792571E-01
  4.808490E-01
  4.783502E-01
  4.738019E-01
  4.665531E-01
  4.600650E-01
  4.543726E-01
  4.557616E-01
  4.554323E-01
  4.576266E-01
  4.650868E-01
  4.709173E-01
  4.758902E-01
  4.749794E-01
  4.735778E-01
  4.704429E-01
  4.711276E-01
  4.712091E-01
  4.725138E-01
  4.694166E-01
  4.660192E-01
  4.606747E-01
  4.601047E-01
  4.619942E-01
  4.691503E-01
  4.742545E-01
  4.774000E-01
  4.731853E-01
  4.675609E-01
  4.607940E-01
  4.603398E-01
  4.633733E-01
  4.719232E-01
  4.784678E-01
  4.834251E-01
  4.815120E-01
  4.779923E-01
  4.715870E-01
  4.681923E-01
  4.644602E-01
  4.639662E-01
  4.625825E-01
  4.641150E-01
  4.643738E-01
  4.664097E-01
  4.653952E-01
  4.649150E-01
  4.617874E-01
  4.611290E-01
  4.599824E-01
  4.622150E-01
  4.632763E-01
  4.664080E-01
  4.675797E-01
  4.706811E-01
  4.713523E-01
  4.725753E-01
  4.699900E-01
  4.683934E-01
  4.659107E-01
  4.681409E-01
  4.712409E-01
  4.772340E-01
  4.797436E-01
  4.813655E-01
  4.787120E-01
  4.771420E-01
  4.735028E-01
  4.712596E-01
  4.657751E-01
  4.612796E-01
  4.532268E-01
  4.570280E-01
  4.589148E-01
  4.655283E-01
  4.680183E-01
  4.728645E-01
  4.717819E-01
  4.728262E-01
  4.692324E-01
  4.694554E-01
  4.659658E-01
  4.661355E-01
  4.621642E-01
  4.622056E-01
  4.596039E-01
  4.628055E-01
  4.642665E-01
  4.707747E-01
  4.730174E-01
  4.768081E-01
  4.732647E-01
  4.705447E-01
  4.629820E-01
  4.610240E-01
  4.592965E-01
  4.658828E-01
  4.711463E-01
  4.789076E-01
  4.779189E-01
  4.751228E-01
  4.653406E-01
  4.604203E-01
  4.559054E-01
  4.600298E-01
  4.632118E-01
  4.697626E-01
  4.692943E-01
  4.689510E-01
  4.627610E-01
  4.609314E-01
  4.575550E-01
  4.604258E-01
  4.608680E-01
  4.652022E-01
  4.651021E-01
  4.684011E-01
  4.679272E-01
  4.714102E-01
  4.704534E-01
  4.717385E-01
  4.671902E-01
  4.653526E-01
  4.604324E-01
  4.619733E-01
  4.632640E-01
  4.712645E-01
  4.761517E-01
  4.828907E-01
  4.816919E-01
  4.799388E-01
  4.712611E-01
  4.656489E-01
  4.575325E-01
  4.558151E-01
  4.630932E-01
  4.635658E-01
  4.620191E-01
  4.659924E-01
  4.667920E-01
  4.700365E-01
  4.674005E-01
  4.669943E-01
  4.630011E-01
  4.640388E-01
  4.626214E-01
  4.650127E-01
  4.627212E-01
  4.631257E-01
  4.600734E-01
  4.626758E-01
  4.645668E-01
  4.724672E-01
  4.765531E-01
  4.813213E-01
  4.775771E-01
  4.736029E-01
  4.648190E-01
  4.618950E-01
  4.592411E-01
  4.638374E-01
  4.662309E-01
  4.713235E-01
  4.702343E-01
  4.707147E-01
  4.667147E-01
  4.668115E-01
  4.637850E-01
  4.646431E-01
  4.618350E-01
  4.631179E-01
  4.615764E-01
  4.646145E-01
  4.642075E-01
  4.670258E-01
  4.654725E-01
  4.674476E-01
  4.662154E-01
  4.693611E-01
  4.689816E-01
  4.717813E-01
  4.698605E-01
  4.705649E-01
  4.665398E-01
  4.654525E-01
  4.605666E-01
  4.605253E-01
  4.592550E-01
  4.645350E-01
  4.678495E-01
  4.742599E-01
  4.741534E-01
  4.744761E-01
  4.692255E-01
  4.681009E-01
  4.650294E-01
  4.671220E-01
  4.655781E-01
  4.666598E-01
  4.664109E-01
  4.692209E-01
  4.676179E-01
  4.678913E-01
  4.661414E-01
  4.679794E-01
  4.677090E-01
  4.695346E-01
  4.675598E-01
  4.668760E-01
  4.629076E-01
  4.617897E-01
  4.593630E-01
  4.614066E-01
  4.628194E-01
  4.681461E-01
  4.713461E-01
  4.768421E-01
  4.788815E-01
  4.819215E-01
  4.796898E-01
  4.766862E-01
  4.682496E-01
  4.617202E-01
  4.548350E-01
  4.547259E-01
  4.561287E-01
  4.617787E-01
  4.633909E-01
  4.644055E-01
  4.605945E-01
  4.598315E-01
  4.593130E-01
  4.644419E-01
  4.681478E-01
  4.728076E-01
  4.715025E-01
  4.698394E-01
  4.647416E-01
  4.635977E-01
  4.623366E-01
  4.657759E-01
  4.675348E-01
  4.714096E-01
  4.713082E-01
  4.721662E-01
  4.691034E-01
  4.678983E-01
  4.640291E-01
  4.632404E-01
  4.608255E-01
  4.621354E-01
  4.619168E-01
  4.648953E-01
  4.653793E-01
  4.680134E-01
  4.671610E-01
  4.675900E-01
  4.640047E-01
  4.621540E-01
  4.582597E-01
  4.589450E-01
  4.596134E-01
  4.644418E-01
  4.796429E-01
  4.778554E-01
  4.726940E-01
  4.691752E-01
  4.664222E-01
  4.665266E-01
  4.661631E-01
  4.667370E-01
  4.656737E-01
  4.654557E-01
  4.640890E-01
  4.640740E-01
  4.633157E-01
  4.643726E-01
  4.652829E-01
  4.685497E-01
  4.718019E-01
  4.767799E-01
  4.800857E-01
  4.826076E-01
  4.808225E-01
  4.768118E-01
  4.693870E-01
  4.629373E-01
  4.571315E-01
  4.551348E-01
  4.543525E-01
  4.561037E-01
  4.573649E-01
  4.602825E-01
  4.627494E-01
  4.668194E-01
  4.692576E-01
  4.712066E-01
  4.699526E-01
  4.685760E-01
  4.662392E-01
  4.662642E-01
  4.662882E-01
  4.678275E-01
  4.680633E-01
  4.694924E-01
  4.702835E-01
  4.725715E-01
  4.729830E-01
  4.725516E-01
  4.685976E-01
  4.643998E-01
  4.594793E-01
  4.578491E-01
  4.581842E-01
  4.626176E-01
  4.675394E-01
  4.729614E-01
  4.741538E-01
  4.719916E-01
  4.646850E-01
  4.570271E-01
  4.501505E-01
  4.491088E-01
  4.525745E-01
  4.614807E-01
  4.704099E-01
  4.780062E-01
  4.819410E-01
  4.817262E-01
  4.768425E-01
  4.701591E-01
  4.656509E-01
  4.645468E-01
  4.665904E-01
  4.690808E-01
  4.701770E-01
  4.684592E-01
  4.652198E-01
  4.620271E-01
  4.612664E-01
  4.632222E-01
  4.674639E-01
  4.715789E-01
  4.743126E-01
  4.749480E-01
  4.750617E-01
  4.753210E-01
  4.759019E-01
  4.747072E-01
  4.707243E-01
  4.638920E-01
  4.570590E-01
  4.525425E-01
  4.520173E-01
  4.540364E-01
  4.568170E-01
  4.583499E-01
  4.594330E-01
  4.613339E-01
  4.657444E-01
  4.715214E-01
  4.766785E-01
  4.781758E-01
  4.756030E-01
  4.699616E-01
  4.644686E-01
  4.610709E-01
  4.611932E-01
  4.638756E-01
  4.680336E-01
  4.712628E-01
  4.723289E-01
  4.700559E-01
  4.655916E-01
  4.603731E-01
  4.571098E-01
  4.569858E-01
  4.606842E-01
  4.663488E-01
  4.717897E-01
  4.739235E-01
  4.720813E-01
  4.667525E-01
  4.605772E-01
  4.550474E-01
  4.516191E-01
  4.503956E-01
  4.525471E-01
  4.582367E-01
  4.671874E-01
  4.761784E-01
  4.891325E-01
  4.836961E-01
  4.773775E-01
  4.685960E-01
  4.649804E-01
  4.618522E-01
  4.633289E-01
  4.628749E-01
  4.646162E-01
  4.631736E-01
  4.640743E-01
  4.628156E-01
  4.649421E-01
  4.652277E-01
  4.681692E-01
  4.678569E-01
  4.691664E-01
  4.674056E-01
  4.685638E-01
  4.679670E-01
  4.703652E-01
  4.695902E-01
  4.699090E-01
  4.661378E-01
  4.642798E-01
  4.602141E-01
  4.596584E-01
  4.576839E-01
  4.596107E-01
  4.607332E-01
  4.663350E-01
  4.705091E-01
  4.765479E-01
  4.772179E-01
  4.768206E-01
  4.712046E-01
  4.678329E-01
  4.634121E-01
  4.635301E-01
  4.624442E-01
  4.646995E-01
  4.652048E-01
  4.691302E-01
  4.704678E-01
  4.725812E-01
  4.687929E-01
  4.645204E-01
  4.568157E-01
  4.537420E-01
  4.523703E-01
  4.581915E-01
  4.646228E-01
  4.738177E-01
  4.773224E-01
  4.782189E-01
  4.713751E-01
  4.641125E-01
  4.545296E-01
  4.508598E-01
  4.500275E-01
  4.574623E-01
  4.665168E-01
  4.790227E-01
  4.857933E-01
  4.815764E-01
  4.778630E-01
  4.759060E-01
  4.663746E-01
  4.640281E-01
  4.590245E-01
  4.626610E-01
  4.615411E-01
  4.652795E-01
  4.614351E-01
  4.624276E-01
  4.584432E-01
  4.624749E-01
  4.628222E-01
  4.692878E-01
  4.677417E-01
  4.685957E-01
  4.613299E-01
  4.605145E-01
  4.571630E-01
  4.631640E-01
  4.647672E-01
  4.705547E-01
  4.673025E-01
  4.676864E-01
  4.624042E-01
  4.647242E-01
  4.627731E-01
  4.667860E-01
  4.642583E-01
  4.674910E-01
  4.663433E-01
  4.731165E-01
  4.748363E-01
  4.806504E-01
  4.766625E-01
  4.744928E-01
  4.644441E-01
  4.611092E-01
  4.552023E-01
  4.590777E-01
  4.604009E-01
  4.687561E-01
  4.698962E-01
  4.733456E-01
  4.667793E-01
  4.633815E-01
  4.543492E-01
  4.540315E-01
  4.523602E-01
  4.603343E-01
  4.641733E-01
  4.724596E-01
  4.713975E-01
  4.727684E-01
  4.668441E-01
  4.675247E-01
  4.639062E-01
  4.668719E-01
  4.639111E-01
  4.670258E-01
  4.659383E-01
  4.730024E-01
  4.752495E-01
  4.791478E-01
  4.720243E-01
  4.725354E-01
  4.638858E-01
  4.648862E-01
  4.579417E-01
  4.606741E-01
  4.550820E-01
  4.589486E-01
  4.547672E-01
  4.605880E-01
  4.586771E-01
  4.663189E-01
  4.645966E-01
  4.700165E-01
  4.638250E-01
  4.644128E-01
  4.556378E-01
  4.573859E-01
  4.532180E-01
  4.607517E-01
  4.609941E-01
  4.700464E-01
  4.687978E-01
  4.748828E-01
  4.706395E-01
  4.744338E-01
  4.687697E-01
  4.723924E-01
  4.684455E-01
  4.754342E-01
  4.746184E-01
  4.818114E-01
  4.767767E-01
  4.769660E-01
  4.660190E-01
  4.647231E-01
  4.572050E-01
  4.615099E-01
  4.589344E-01
  4.663518E-01
  4.656151E-01
  4.741198E-01
  4.725649E-01
  4.770201E-01
  4.684504E-01
  4.659837E-01
  4.545429E-01
  4.547814E-01
  4.504420E-01
  4.587405E-01
  4.601747E-01
  4.703593E-01
  4.698972E-01
  4.763810E-01
  4.723895E-01
  4.766456E-01
  4.716460E-01
  4.755858E-01
  4.707332E-01
  4.755359E-01
  4.722926E-01
  4.785440E-01
  4.752099E-01
  4.667796E-01
  4.650494E-01
  4.706500E-01
  4.645984E-01
  4.665639E-01
  4.597592E-01
  4.633100E-01
  4.584652E-01
  4.626629E-01
  4.571872E-01
  4.609674E-01
  4.568843E-01
  4.639439E-01
  4.631256E-01
  4.707676E-01
  4.661732E-01
  4.671128E-01
  4.568734E-01
  4.570312E-01
  4.519304E-01
  4.601123E-01
  4.612660E-01
  4.708102E-01
  4.686503E-01
  4.737746E-01
  4.693582E-01
  4.748811E-01
  4.712987E-01
  4.758763E-01
  4.697102E-01
  4.724068E-01
  4.671812E-01
  4.731574E-01
  4.707507E-01
  4.763731E-01
  4.699180E-01
  4.699996E-01
  4.599789E-01
  4.607105E-01
  4.557790E-01
  4.639201E-01
  4.656595E-01
  4.769192E-01
  4.762856E-01
  4.803717E-01
  4.707588E-01
  4.683522E-01
  4.578004E-01
  4.596409E-01