# vtk DataFile Version 2.0
title
ASCII
DATASET STRUCTURED_GRID
DIMENSIONS   64   64    1
POINTS   4096  float
  0.000000E+00  0.000000E+00  0.000000E+00
  0.000000E+00  3.906250E-01  0.000000E+00
  0.000000E+00  7.812500E-01  0.000000E+00
  0.000000E+00  1.171875E+00  0.000000E+00
  0.000000E+00  1.562500E+00  0.000000E+00
  0.000000E+00  1.953125E+00  0.000000E+00
  0.000000E+00  2.343750E+00  0.000000E+00
  0.000000E+00  2.734375E+00  0.000000E+00
  0.000000E+00  3.125000E+00  0.000000E+00
  0.000000E+00  3.515625E+00  0.000000E+00
  0.000000E+00  3.906250E+00  0.000000E+00
  0.000000E+00  4.296875E+00  0.000000E+00
  0.000000E+00  4.687500E+00  0.000000E+00
  0.000000E+00  5.078125E+00  0.000000E+00
  0.000000E+00  5.468750E+00  0.000000E+00
  0.000000E+00  5.859375E+00  0.000000E+00
  0.000000E+00  6.250000E+00  0.000000E+00
  0.000000E+00  6.640625E+00  0.000000E+00
  0.000000E+00  7.031250E+00  0.000000E+00
  0.000000E+00  7.421875E+00  0.000000E+00
  0.000000E+00  7.812500E+00  0.000000E+00
  0.000000E+00  8.203125E+00  0.000000E+00
  0.000000E+00  8.593750E+00  0.000000E+00
  0.000000E+00  8.984375E+00  0.000000E+00
  0.000000E+00  9.375000E+00  0.000000E+00
  0.000000E+00  9.765625E+00  0.000000E+00
  0.000000E+00  1.015625E+01  0.000000E+00
  0.000000E+00  1.054688E+01  0.000000E+00
  0.000000E+00  1.093750E+01  0.000000E+00
  0.000000E+00  1.132812E+01  0.000000E+00
  0.000000E+00  1.171875E+01  0.000000E+00
  0.000000E+00  1.210938E+01  0.000000E+00
  0.000000E+00  1.250000E+01  0.000000E+00
  0.000000E+00  1.289062E+01  0.000000E+00
  0.000000E+00  1.328125E+01  0.000000E+00
  0.000000E+00  1.367188E+01  0.000000E+00
  0.000000E+00  1.406250E+01  0.000000E+00
  0.000000E+00  1.445312E+01  0.000000E+00
  0.000000E+00  1.484375E+01  0.000000E+00
  0.000000E+00  1.523438E+01  0.000000E+00
  0.000000E+00  1.562500E+01  0.000000E+00
  0.000000E+00  1.601562E+01  0.000000E+00
  0.000000E+00  1.640625E+01  0.000000E+00
  0.000000E+00  1.679688E+01  0.000000E+00
  0.000000E+00  1.718750E+01  0.000000E+00
  0.000000E+00  1.757812E+01  0.000000E+00
  0.000000E+00  1.796875E+01  0.000000E+00
  0.000000E+00  1.835938E+01  0.000000E+00
  0.000000E+00  1.875000E+01  0.000000E+00
  0.000000E+00  1.914062E+01  0.000000E+00
  0.000000E+00  1.953125E+01  0.000000E+00
  0.000000E+00  1.992188E+01  0.000000E+00
  0.000000E+00  2.031250E+01  0.000000E+00
  0.000000E+00  2.070312E+01  0.000000E+00
  0.000000E+00  2.109375E+01  0.000000E+00
  0.000000E+00  2.148438E+01  0.000000E+00
  0.000000E+00  2.187500E+01  0.000000E+00
  0.000000E+00  2.226562E+01  0.000000E+00
  0.000000E+00  2.265625E+01  0.000000E+00
  0.000000E+00  2.304688E+01  0.000000E+00
  0.000000E+00  2.343750E+01  0.000000E+00
  0.000000E+00  2.382812E+01  0.000000E+00
  0.000000E+00  2.421875E+01  0.000000E+00
  0.000000E+00  2.460938E+01  0.000000E+00
  3.906250E-01  0.000000E+00  0.000000E+00
  3.906250E-01  3.906250E-01  0.000000E+00
  3.906250E-01  7.812500E-01  0.000000E+00
  3.906250E-01  1.171875E+00  0.000000E+00
  3.906250E-01  1.562500E+00  0.000000E+00
  3.906250E-01  1.953125E+00  0.000000E+00
  3.906250E-01  2.343750E+00  0.000000E+00
  3.906250E-01  2.734375E+00  0.000000E+00
  3.906250E-01  3.125000E+00  0.000000E+00
  3.906250E-01  3.515625E+00  0.000000E+00
  3.906250E-01  3.906250E+00  0.000000E+00
  3.906250E-01  4.296875E+00  0.000000E+00
  3.906250E-01  4.687500E+00  0.000000E+00
  3.906250E-01  5.078125E+00  0.000000E+00
  3.906250E-01  5.468750E+00  0.000000E+00
  3.906250E-01  5.859375E+00  0.000000E+00
  3.906250E-01  6.250000E+00  0.000000E+00
  3.906250E-01  6.640625E+00  0.000000E+00
  3.906250E-01  7.031250E+00  0.000000E+00
  3.906250E-01  7.421875E+00  0.000000E+00
  3.906250E-01  7.812500E+00  0.000000E+00
  3.906250E-01  8.203125E+00  0.000000E+00
  3.906250E-01  8.593750E+00  0.000000E+00
  3.906250E-01  8.984375E+00  0.000000E+00
  3.906250E-01  9.375000E+00  0.000000E+00
  3.906250E-01  9.765625E+00  0.000000E+00
  3.906250E-01  1.015625E+01  0.000000E+00
  3.906250E-01  1.054688E+01  0.000000E+00
  3.906250E-01  1.093750E+01  0.000000E+00
  3.906250E-01  1.132812E+01  0.000000E+00
  3.906250E-01  1.171875E+01  0.000000E+00
  3.906250E-01  1.210938E+01  0.000000E+00
  3.906250E-01  1.250000E+01  0.000000E+00
  3.906250E-01  1.289062E+01  0.000000E+00
  3.906250E-01  1.328125E+01  0.000000E+00
  3.906250E-01  1.367188E+01  0.000000E+00
  3.906250E-01  1.406250E+01  0.000000E+00
  3.906250E-01  1.445312E+01  0.000000E+00
  3.906250E-01  1.484375E+01  0.000000E+00
  3.906250E-01  1.523438E+01  0.000000E+00
  3.906250E-01  1.562500E+01  0.000000E+00
  3.906250E-01  1.601562E+01  0.000000E+00
  3.906250E-01  1.640625E+01  0.000000E+00
  3.906250E-01  1.679688E+01  0.000000E+00
  3.906250E-01  1.718750E+01  0.000000E+00
  3.906250E-01  1.757812E+01  0.000000E+00
  3.906250E-01  1.796875E+01  0.000000E+00
  3.906250E-01  1.835938E+01  0.000000E+00
  3.906250E-01  1.875000E+01  0.000000E+00
  3.906250E-01  1.914062E+01  0.000000E+00
  3.906250E-01  1.953125E+01  0.000000E+00
  3.906250E-01  1.992188E+01  0.000000E+00
  3.906250E-01  2.031250E+01  0.000000E+00
  3.906250E-01  2.070312E+01  0.000000E+00
  3.906250E-01  2.109375E+01  0.000000E+00
  3.906250E-01  2.148438E+01  0.000000E+00
  3.906250E-01  2.187500E+01  0.000000E+00
  3.906250E-01  2.226562E+01  0.000000E+00
  3.906250E-01  2.265625E+01  0.000000E+00
  3.906250E-01  2.304688E+01  0.000000E+00
  3.906250E-01  2.343750E+01  0.000000E+00
  3.906250E-01  2.382812E+01  0.000000E+00
  3.906250E-01  2.421875E+01  0.000000E+00
  3.906250E-01  2.460938E+01  0.000000E+00
  7.812500E-01  0.000000E+00  0.000000E+00
  7.812500E-01  3.906250E-01  0.000000E+00
  7.812500E-01  7.812500E-01  0.000000E+00
  7.812500E-01  1.171875E+00  0.000000E+00
  7.812500E-01  1.562500E+00  0.000000E+00
  7.812500E-01  1.953125E+00  0.000000E+00
  7.812500E-01  2.343750E+00  0.000000E+00
  7.812500E-01  2.734375E+00  0.000000E+00
  7.812500E-01  3.125000E+00  0.000000E+00
  7.812500E-01  3.515625E+00  0.000000E+00
  7.812500E-01  3.906250E+00  0.000000E+00
  7.812500E-01  4.296875E+00  0.000000E+00
  7.812500E-01  4.687500E+00  0.000000E+00
  7.812500E-01  5.078125E+00  0.000000E+00
  7.812500E-01  5.468750E+00  0.000000E+00
  7.812500E-01  5.859375E+00  0.000000E+00
  7.812500E-01  6.250000E+00  0.000000E+00
  7.812500E-01  6.640625E+00  0.000000E+00
  7.812500E-01  7.031250E+00  0.000000E+00
  7.812500E-01  7.421875E+00  0.000000E+00
  7.812500E-01  7.812500E+00  0.000000E+00
  7.812500E-01  8.203125E+00  0.000000E+00
  7.812500E-01  8.593750E+00  0.000000E+00
  7.812500E-01  8.984375E+00  0.000000E+00
  7.812500E-01  9.375000E+00  0.000000E+00
  7.812500E-01  9.765625E+00  0.000000E+00
  7.812500E-01  1.015625E+01  0.000000E+00
  7.812500E-01  1.054688E+01  0.000000E+00
  7.812500E-01  1.093750E+01  0.000000E+00
  7.812500E-01  1.132812E+01  0.000000E+00
  7.812500E-01  1.171875E+01  0.000000E+00
  7.812500E-01  1.210938E+01  0.000000E+00
  7.812500E-01  1.250000E+01  0.000000E+00
  7.812500E-01  1.289062E+01  0.000000E+00
  7.812500E-01  1.328125E+01  0.000000E+00
  7.812500E-01  1.367188E+01  0.000000E+00
  7.812500E-01  1.406250E+01  0.000000E+00
  7.812500E-01  1.445312E+01  0.000000E+00
  7.812500E-01  1.484375E+01  0.000000E+00
  7.812500E-01  1.523438E+01  0.000000E+00
  7.812500E-01  1.562500E+01  0.000000E+00
  7.812500E-01  1.601562E+01  0.000000E+00
  7.812500E-01  1.640625E+01  0.000000E+00
  7.812500E-01  1.679688E+01  0.000000E+00
  7.812500E-01  1.718750E+01  0.000000E+00
  7.812500E-01  1.757812E+01  0.000000E+00
  7.812500E-01  1.796875E+01  0.000000E+00
  7.812500E-01  1.835938E+01  0.000000E+00
  7.812500E-01  1.875000E+01  0.000000E+00
  7.812500E-01  1.914062E+01  0.000000E+00
  7.812500E-01  1.953125E+01  0.000000E+00
  7.812500E-01  1.992188E+01  0.000000E+00
  7.812500E-01  2.031250E+01  0.000000E+00
  7.812500E-01  2.070312E+01  0.000000E+00
  7.812500E-01  2.109375E+01  0.000000E+00
  7.812500E-01  2.148438E+01  0.000000E+00
  7.812500E-01  2.187500E+01  0.000000E+00
  7.812500E-01  2.226562E+01  0.000000E+00
  7.812500E-01  2.265625E+01  0.000000E+00
  7.812500E-01  2.304688E+01  0.000000E+00
  7.812500E-01  2.343750E+01  0.000000E+00
  7.812500E-01  2.382812E+01  0.000000E+00
  7.812500E-01  2.421875E+01  0.000000E+00
  7.812500E-01  2.460938E+01  0.000000E+00
  1.171875E+00  0.000000E+00  0.000000E+00
  1.171875E+00  3.906250E-01  0.000000E+00
  1.171875E+00  7.812500E-01  0.000000E+00
  1.171875E+00  1.171875E+00  0.000000E+00
  1.171875E+00  1.562500E+00  0.000000E+00
  1.171875E+00  1.953125E+00  0.000000E+00
  1.171875E+00  2.343750E+00  0.000000E+00
  1.171875E+00  2.734375E+00  0.000000E+00
  1.171875E+00  3.125000E+00  0.000000E+00
  1.171875E+00  3.515625E+00  0.000000E+00
  1.171875E+00  3.906250E+00  0.000000E+00
  1.171875E+00  4.296875E+00  0.000000E+00
  1.171875E+00  4.687500E+00  0.000000E+00
  1.171875E+00  5.078125E+00  0.000000E+00
  1.171875E+00  5.468750E+00  0.000000E+00
  1.171875E+00  5.859375E+00  0.000000E+00
  1.171875E+00  6.250000E+00  0.000000E+00
  1.171875E+00  6.640625E+00  0.000000E+00
  1.171875E+00  7.031250E+00  0.000000E+00
  1.171875E+00  7.421875E+00  0.000000E+00
  1.171875E+00  7.812500E+00  0.000000E+00
  1.171875E+00  8.203125E+00  0.000000E+00
  1.171875E+00  8.593750E+00  0.000000E+00
  1.171875E+00  8.984375E+00  0.000000E+00
  1.171875E+00  9.375000E+00  0.000000E+00
  1.171875E+00  9.765625E+00  0.000000E+00
  1.171875E+00  1.015625E+01  0.000000E+00
  1.171875E+00  1.054688E+01  0.000000E+00
  1.171875E+00  1.093750E+01  0.000000E+00
  1.171875E+00  1.132812E+01  0.000000E+00
  1.171875E+00  1.171875E+01  0.000000E+00
  1.171875E+00  1.210938E+01  0.000000E+00
  1.171875E+00  1.250000E+01  0.000000E+00
  1.171875E+00  1.289062E+01  0.000000E+00
  1.171875E+00  1.328125E+01  0.000000E+00
  1.171875E+00  1.367188E+01  0.000000E+00
  1.171875E+00  1.406250E+01  0.000000E+00
  1.171875E+00  1.445312E+01  0.000000E+00
[...]
POINT_DATA   4096
SCALARS CON  float  1
LOOKUP_TABLE default
  4.714671E-01
  4.722861E-01
  4.789376E-01
  4.752087E-01
  4.755820E-01
  4.683196E-01
  4.704554E-01
  4.686157E-01
  4.751740E-01
  4.731525E-01
  4.752909E-01
  4.681463E-01
  4.681682E-01
  4.631749E-01
  4.679701E-01
  4.676392E-01
  4.746227E-01
  4.729445E-01
  4.759445E-01
  4.698023E-01
  4.700994E-01
  4.638017E-01
  4.652984E-01
  4.600200E-01
  4.619686E-01
  4.578755E-01
  4.630425E-01
  4.636667E-01
  4.723275E-01
  4.721913E-01
  4.757593E-01
  4.695610E-01
  4.705188E-01
  4.666586E-01
  4.720676E-01
  4.704035E-01
  4.736775E-01
  4.673752E-01
  4.672806E-01
  4.610836E-01
  4.635608E-01
  4.598690E-01
  4.629894E-01
  4.583698E-01
  4.608462E-01
  4.579351E-01
  4.651112E-01
  4.681800E-01
  4.788479E-01
  4.789285E-01
  4.800139E-01
  4.688891E-01
  4.644747E-01
  4.577900E-01
  4.653391E-01
  4.713783E-01
  4.850676E-01
  4.868529E-01
  4.890629E-01
  4.792711E-01
  4.755213E-01
  4.664535E-01
  4.674992E-01
  4.646463E-01
  4.718625E-01
  4.743899E-01
  4.825979E-01
  4.812655E-01
  4.806887E-01
  4.711402E-01
  4.685075E-01
  4.639383E-01
  4.689892E-01
  4.696154E-01
  4.750274E-01
  4.722885E-01
  4.734770E-01
  4.679527E-01
  4.687793E-01
  4.654288E-01
  4.700095E-01
  4.698617E-01
  4.747284E-01
  4.712169E-01
  4.712164E-01
  4.647639E-01
  4.654893E-01
  4.622935E-01
  4.660094E-01
  4.638507E-01
  4.672488E-01
  4.651808E-01
  4.699241E-01
  4.694105E-01
  4.742126E-01
  4.715611E-01
  4.731288E-01
  4.679043E-01
  4.685636E-01
  4.640890E-01
  4.664989E-01
  4.639460E-01
  4.674757E-01
  4.644012E-01
  4.657260E-01
  4.599523E-01
  4.597476E-01
  4.546110E-01
  4.569747E-01
  4.558381E-01
  4.632685E-01
  4.672898E-01
  4.773919E-01
  4.781422E-01
  4.788685E-01
  4.691860E-01
  4.659224E-01
  4.624861E-01
  4.720115E-01
  4.795128E-01
  4.906176E-01
  4.888650E-01
  4.863819E-01
  4.753981E-01
  4.718609E-01
  4.654859E-01
  4.674334E-01
  4.655588E-01
  4.638996E-01
  4.733919E-01
  4.830528E-01
  4.845428E-01
  4.809641E-01
  4.718016E-01
  4.661147E-01
  4.630618E-01
  4.663411E-01
  4.695401E-01
  4.738789E-01
  4.738867E-01
  4.736055E-01
  4.702356E-01
  4.691639E-01
  4.674584E-01
  4.692143E-01
  4.697657E-01
  4.719306E-01
  4.709470E-01
  4.708057E-01
  4.682259E-01
  4.677748E-01
  4.656617E-01
  4.656908E-01
  4.639637E-01
  4.647250E-01
  4.642333E-01
  4.660341E-01
  4.653499E-01
  4.656278E-01
  4.634128E-01
  4.638661E-01
  4.639099E-01
  4.670930E-01
  4.680308E-01
  4.693702E-01
  4.670383E-01
  4.658431E-01
  4.626350E-01
  4.614316E-01
  4.580324E-01
  4.564684E-01
  4.536117E-01
  4.545076E-01
  4.561580E-01
  4.625780E-01
  4.687743E-01
  4.762740E-01
  4.782007E-01
  4.770078E-01
  4.701692E-01
  4.656400E-01
  4.635809E-01
  4.695831E-01
  4.777168E-01
  4.870576E-01
  4.887799E-01
  4.852684E-01
  4.747347E-01
  4.651768E-01
  4.561574E-01
  4.538032E-01
  4.552145E-01
  4.636147E-01
  4.741094E-01
  4.807803E-01
  4.849860E-01
  4.784254E-01
  4.701276E-01
  4.594907E-01
  4.569693E-01
  4.574540E-01
  4.650148E-01
  4.702254E-01
  4.762352E-01
  4.753399E-01
  4.740710E-01
  4.682111E-01
  4.665579E-01
  4.648524E-01
  4.691231E-01
  4.711774E-01
  4.746614E-01
  4.723755E-01
  4.715730E-01
  4.680463E-01
  4.689973E-01
  4.676976E-01
  4.689112E-01
  4.657715E-01
  4.650698E-01
  4.621471E-01
  4.641076E-01
  4.644598E-01
  4.678119E-01
  4.665175E-01
  4.663557E-01
  4.622646E-01
  4.621611E-01
  4.611971E-01
  4.652664E-01
  4.664986E-01
  4.688553E-01
  4.652050E-01
  4.627795E-01
  4.578263E-01
  4.583479E-01
  4.585299E-01
  4.634630E-01
  4.658677E-01
  4.711524E-01
  4.723629E-01
  4.744313E-01
  4.704259E-01
  4.676700E-01
  4.631309E-01
  4.659407E-01
  4.704343E-01
  4.797536E-01
  4.830029E-01
  4.833092E-01
  4.752525E-01
  4.685585E-01
  4.603196E-01
  4.579396E-01
  4.554003E-01
  4.591159E-01
  4.595847E-01
  4.728043E-01
  4.767927E-01
  4.819298E-01
  4.726661E-01
  4.671542E-01
  4.558870E-01
  4.566915E-01
  4.554778E-01
  4.646364E-01
  4.668262E-01
  4.741634E-01
  4.710157E-01
  4.726952E-01
  4.663791E-01
  4.684836E-01
  4.653615E-01
  4.712005E-01
  4.702030E-01
  4.756086E-01
  4.720311E-01
  4.742244E-01
  4.681687E-01
  4.691235E-01
  4.629982E-01
  4.646489E-01
  4.597649E-01
  4.629530E-01
  4.596387E-01
  4.640090E-01
  4.611613E-01
  4.653178E-01
  4.619452E-01
  4.658983E-01
  4.629553E-01
  4.676553E-01
  4.651395E-01
  4.695054E-01
  4.657737E-01
  4.682077E-01
  4.623680E-01
  4.637038E-01
  4.590453E-01
  4.638230E-01
  4.633251E-01
  4.707024E-01
  4.698028E-01
  4.744449E-01
  4.700869E-01
  4.717163E-01
  4.650753E-01
  4.654056E-01
  4.594734E-01
  4.632313E-01
  4.628107E-01
  4.716549E-01
  4.726956E-01
  4.780115E-01
  4.718792E-01
  4.697958E-01
  4.591726E-01
  4.568503E-01
  4.505349E-01
  4.562049E-01
  4.647434E-01
  4.732475E-01
  4.731729E-01
  4.780557E-01
  4.690922E-01
  4.651161E-01
  4.533076E-01
  4.539674E-01
  4.515208E-01
  4.613253E-01
  4.638322E-01
  4.729555E-01
  4.699733E-01
  4.720797E-01
  4.643818E-01
  4.665761E-01
  4.636376E-01
  4.721162E-01
  4.727288E-01
  4.795758E-01
  4.742496E-01
  4.747122E-01
  4.661683E-01
  4.672963E-01
  4.614628E-01
  4.647035E-01
  4.594820E-01
  4.629434E-01
  4.594368E-01
  4.665852E-01
  4.667903E-01
  4.746204E-01
  4.707736E-01
  4.718214E-01
  4.629279E-01
  4.642091E-01
  4.607837E-01
  4.687895E-01
  4.684539E-01
  4.738228E-01
  4.673810E-01
  4.683551E-01
  4.630765E-01
  4.698987E-01
  4.704676E-01
  4.784310E-01
  4.743791E-01
  4.755246E-01
  4.668459E-01
  4.670675E-01
  4.598485E-01
  4.621025E-01
  4.574639E-01
  4.633238E-01
  4.625393E-01
  4.702299E-01
  4.674819E-01
  4.706252E-01
  4.640244E-01
  4.664861E-01
  4.618293E-01
  4.662225E-01
  4.620705E-01
  4.667324E-01
  4.635232E-01
  4.703243E-01
  4.700788E-01
  4.736709E-01
  4.671596E-01
  4.653499E-01
  4.577272E-01
  4.593547E-01
  4.575485E-01
  4.642706E-01
  4.645881E-01
  4.699407E-01
  4.664882E-01
  4.682506E-01
  4.638028E-01
  4.678265E-01
  4.675050E-01
  4.749593E-01
  4.751952E-01
  4.798396E-01
  4.749198E-01
  4.741679E-01
  4.655417E-01
  4.636942E-01
  4.567475E-01
  4.585131E-01
  4.559447E-01
  4.615792E-01
  4.615991E-01
  4.683753E-01
  4.680374E-01
  4.730836E-01
  4.700096E-01
  4.725600E-01
  4.686063E-01
  4.721569E-01
  4.698827E-01
  4.739711E-01
  4.701232E-01
  4.712419E-01
  4.650587E-01
  4.665933E-01
  4.642613E-01
  4.712923E-01
  4.727425E-01
  4.790612E-01
  4.751447E-01
  4.747063E-01
  4.666161E-01
  4.660813E-01
  4.605831E-01
  4.627451E-01
  4.588443E-01
  4.618907E-01
  4.590609E-01
  4.635545E-01
  4.619627E-01
  4.669638E-01
  4.649846E-01
  4.688294E-01
  4.650499E-01
  4.668964E-01
  4.620262E-01
  4.649573E-01
  4.671042E-01
  4.678776E-01
  4.677346E-01
  4.707241E-01
  4.690623E-01
  4.680274E-01
  4.632443E-01
  4.625185E-01
  4.614442E-01
  4.655151E-01
  4.674571E-01
  4.710213E-01
  4.692433E-01
  4.683482E-01
  4.645759E-01
  4.660179E-01
  4.680679E-01
  4.753350E-01
  4.790469E-01
  4.819484E-01
  4.771994E-01
  4.722288E-01
  4.642500E-01
  4.614376E-01
  4.587509E-01
  4.610257E-01
  4.612434E-01
  4.645002E-01
  4.655227E-01
  4.707023E-01
  4.738639E-01
  4.788787E-01
  4.778969E-01
  4.764303E-01
  4.707964E-01
  4.697469E-01
  4.690169E-01
  4.731802E-01
  4.736320E-01
  4.740703E-01
  4.692240E-01
  4.675762E-01
  4.660552E-01
  4.707631E-01
  4.735937E-01
  4.770570E-01
  4.738805E-01
  4.712028E-01
  4.658557E-01
  4.651565E-01
  4.631442E-01
  4.646360E-01
  4.635759E-01
  4.658942E-01
  4.656239E-01
  4.674676E-01
  4.648836E-01
  4.642960E-01
  4.619417E-01
  4.650445E-01
  4.672873E-01
  4.720112E-01
  4.712864E-01
  4.708744E-01
  4.616770E-01
  4.626208E-01
  4.652743E-01
  4.682721E-01
  4.706098E-01
  4.714962E-01
  4.714272E-01
  4.709951E-01
  4.711349E-01
  4.716958E-01
  4.722070E-01
  4.715105E-01
  4.695512E-01
  4.670796E-01
  4.660357E-01
  4.674665E-01
  4.714185E-01
  4.760414E-01
  4.793012E-01
  4.793118E-01
  4.760207E-01
  4.703828E-01
  4.645311E-01
  4.601501E-01
  4.587175E-01
  4.601746E-01
  4.636905E-01
  4.673477E-01
  4.700226E-01
  4.711608E-01
  4.714688E-01
  4.714166E-01
  4.717346E-01
  4.726017E-01
  4.743744E-01
  4.763446E-01
  4.775174E-01
  4.764424E-01
  4.730842E-01
  4.683867E-01
  4.645486E-01
  4.629938E-01
  4.642735E-01
  4.670640E-01
  4.697149E-01
  4.705631E-01
  4.697471E-01
  4.682925E-01
  4.677836E-01
  4.683319E-01
  4.693210E-01
  4.694965E-01
  4.688315E-01
  4.677082E-01
  4.670367E-01
  4.667658E-01
  4.668622E-01
  4.669400E-01
  4.672745E-01
  4.675928E-01
  4.676523E-01
  4.666389E-01
  4.647190E-01
  4.625590E-01
  4.620126E-01
  4.603622E-01
  4.632281E-01
  4.673735E-01
  4.723667E-01
  4.740510E-01
  4.742596E-01
  4.723076E-01
  4.720922E-01
  4.723001E-01
  4.742688E-01
  4.742262E-01
  4.730645E-01
  4.690830E-01
  4.663719E-01
  4.651874E-01
  4.686585E-01
  4.734176E-01
  4.784455E-01
  4.786327E-01
  4.753108E-01
  4.684048E-01
  4.634278E-01
  4.609317E-01
  4.634958E-01
  4.673899E-01
  4.720802E-01
  4.735639E-01
  4.739037E-01
  4.724655E-01
  4.727121E-01
  4.725744E-01
  4.731831E-01
  4.718527E-01
  4.712825E-01
  4.705014E-01
  4.718837E-01
  4.722198E-01
  4.720580E-01
  4.688512E-01
  4.659433E-01
  4.632478E-01
  4.639847E-01
  4.653978E-01
  4.677168E-01
  4.675062E-01
  4.672662E-01
  4.665333E-01
  4.684489E-01
  4.702289E-01
  4.722772E-01
  4.716799E-01
  4.714824E-01
  4.711496E-01
  4.730607E-01
  4.736334E-01
  4.732682E-01
  4.699194E-01
  4.676606E-01
  4.663897E-01
  4.682104E-01
  4.689953E-01
  4.686762E-01
  4.649636E-01
  4.565676E-01
  4.580848E-01
  4.615704E-01
  4.666825E-01
  4.712323E-01
  4.745327E-01
  4.753707E-01
  4.750582E-01
  4.741053E-01
  4.739756E-01
  4.736918E-01
  4.729487E-01
  4.704639E-01
  4.676065E-01
  4.653304E-01
  4.657023E-01
  4.681141E-01
  4.719294E-01
  4.744806E-01
  4.748850E-01
  4.721077E-01
  4.679001E-01
  4.635167E-01
  4.616567E-01
  4.628542E-01
  4.674564E-01
  4.727036E-01
  4.764363E-01
  4.760960E-01
  4.727111E-01
  4.677408E-01
  4.643842E-01
  4.635150E-01
  4.659427E-01
  4.697689E-01
  4.735555E-01
  4.744831E-01
  4.723372E-01
  4.674363E-01
  4.628177E-01
  4.599631E-01
  4.602305E-01
  4.619350E-01
  4.640440E-01
  4.647789E-01
  4.650945E-01
  4.655256E-01
  4.677268E-01
  4.706916E-01
  4.735454E-01
  4.739828E-01
  4.724487E-01
  4.696782E-01
  4.683570E-01
  4.688749E-01
  4.714252E-01
  4.738134E-01
  4.753398E-01
  4.747320E-01
  4.728212E-01
  4.693079E-01
  4.653596E-01
  4.609995E-01
  4.579485E-01
  4.596060E-01
  4.599109E-01
  4.612457E-01
  4.670319E-01
  4.702865E-01
  4.734240E-01
  4.714193E-01
  4.703020E-01
  4.676012E-01
  4.690543E-01
  4.695265E-01
  4.717996E-01
  4.697346E-01
  4.678878E-01
  4.633846E-01
  4.630881E-01
  4.637803E-01
  4.693047E-01
  4.725797E-01
  4.753905E-01
  4.720036E-01
  4.683832E-01
  4.629429E-01
  4.629424E-01
  4.646751E-01
  4.712419E-01
  4.752060E-01
  4.785716E-01
  4.760779E-01
  4.737824E-01
  4.692324E-01
  4.681854E-01
  4.659214E-01
  4.663785E-01
  4.648155E-01
  4.660254E-01
  4.654358E-01
  4.670031E-01
  4.654351E-01
  4.652398E-01
  4.626848E-01
  4.633724E-01
  4.631031E-01
  4.657461E-01
  4.657183E-01
  4.672864E-01
  4.666414E-01
  4.692257E-01
  4.702055E-01
  4.726002E-01
  4.704195E-01
  4.686743E-01
  4.650976E-01
  4.665578E-01
  4.687995E-01
  4.743466E-01
  4.759482E-01
  4.770529E-01
  4.740671E-01
  4.733291E-01
  4.709149E-01
  4.706038E-01
  4.667507E-01
  4.640600E-01
  4.579256E-01
  4.609929E-01
  4.620138E-01
  4.669435E-01
  4.682161E-01
  4.715512E-01
  4.697790E-01
  4.700797E-01
  4.668924E-01
  4.677804E-01
  4.660024E-01
  4.674234E-01
  4.647354E-01
  4.649288E-01
  4.623966E-01
  4.647095E-01
  4.652858E-01
  4.700476E-01
  4.711817E-01
  4.742618E-01
  4.718068E-01
  4.705361E-01
  4.648040E-01
  4.632129E-01
  4.610180E-01
  4.655331E-01
  4.687677E-01
  4.745848E-01
  4.737449E-01
  4.724705E-01
  4.658517E-01
  4.633474E-01
  4.602860E-01
  4.635908E-01
  4.652381E-01
  4.697115E-01
  4.685738E-01
  4.682343E-01
  4.633137E-01
  4.624198E-01
  4.601526E-01
  4.630597E-01
  4.633545E-01
  4.665348E-01
  4.656062E-01
  4.678163E-01
  4.672104E-01
  4.704871E-01
  4.700381E-01
  4.713499E-01
  4.672832E-01
  4.654413E-01
  4.609688E-01
  4.621580E-01
  4.629155E-01
  4.691224E-01
  4.724204E-01
  4.776719E-01
  4.768721E-01
  4.764528E-01
  4.704266E-01
  4.669538E-01
  4.609047E-01
  4.600097E-01
  4.646412E-01
  4.650257E-01
  4.642966E-01
  4.673986E-01
  4.680169E-01
  4.698574E-01
  4.672892E-01
  4.662571E-01
  4.631314E-01
  4.640093E-01
  4.635950E-01
  4.658910E-01
  4.647506E-01
  4.651566E-01
  4.629119E-01
  4.644259E-01
  4.654071E-01
  4.706157E-01
  4.734394E-01
  4.770584E-01
  4.750037E-01
  4.726019E-01
  4.664125E-01
  4.638692E-01
  4.614911E-01
  4.644435E-01
  4.662493E-01
  4.701050E-01
  4.697117E-01
  4.703953E-01
  4.680571E-01
  4.685561E-01
  4.666582E-01
  4.669613E-01
  4.642911E-01
  4.643900E-01
  4.629180E-01
  4.651064E-01
  4.651740E-01
  4.673561E-01
  4.662467E-01
  4.674139E-01
  4.664134E-01
  4.685237E-01
  4.681795E-01
  4.699392E-01
  4.685221E-01
  4.692085E-01
  4.668854E-01
  4.664303E-01
  4.627899E-01
  4.619899E-01
  4.603723E-01
  4.638405E-01
  4.665939E-01
  4.717487E-01
  4.722934E-01
  4.729212E-01
  4.696395E-01
  4.691978E-01
  4.672773E-01
  4.686179E-01
  4.671430E-01
  4.673960E-01
  4.662793E-01
  4.679312E-01
  4.672788E-01
  4.673430E-01
  4.670310E-01
  4.683469E-01
  4.685080E-01
  4.688722E-01
  4.673766E-01
  4.664276E-01
  4.643892E-01
  4.635596E-01
  4.623460E-01
  4.633344E-01
  4.647897E-01
  4.682616E-01
  4.707614E-01
  4.736018E-01
  4.747348E-01
  4.763317E-01
  4.758762E-01
  4.743626E-01
  4.692790E-01
  4.637886E-01
  4.583478E-01
  4.571695E-01
  4.585972E-01
  4.628094E-01
  4.650926E-01
  4.658853E-01
  4.637893E-01
  4.628926E-01
  4.628956E-01
  4.658890E-01
  4.684017E-01
  4.706310E-01
  4.696865E-01
  4.681760E-01
  4.655199E-01
  4.649374E-01
  4.647077E-01
  4.663414E-01
  4.670979E-01
  4.685367E-01
  4.685214E-01
  4.690545E-01
  4.680052E-01
  4.672808E-01
  4.649994E-01
  4.637060E-01
  4.621129E-01
  4.627237E-01
  4.634281E-01
  4.656132E-01
  4.665872E-01
  4.680243E-01
  4.678631E-01
  4.680295E-01
  4.662491E-01
  4.645770E-01
  4.617780E-01
  4.611552E-01
  4.615105E-01
  4.643843E-01
  4.755917E-01
  4.736986E-01
  4.707114E-01
  4.679891E-01
  4.670817E-01
  4.669540E-01
  4.673401E-01
  4.670314E-01
  4.666669E-01
  4.658330E-01
  4.653085E-01
  4.645363E-01
  4.644081E-01
  4.646924E-01
  4.663013E-01
  4.684645E-01
  4.713494E-01
  4.737837E-01
  4.760086E-01
  4.769665E-01
  4.767116E-01
  4.740699E-01
  4.698295E-01
  4.645058E-01
  4.604375E-01
  4.582009E-01
  4.584897E-01
  4.597392E-01
  4.615458E-01
  4.629294E-01
  4.648817E-01
  4.669950E-01
  4.693316E-01
  4.701330E-01
  4.694507E-01
  4.673326E-01
  4.659606E-01
  4.657658E-01
  4.671280E-01
  4.682229E-01
  4.688286E-01
  4.685445E-01
  4.689119E-01
  4.696807E-01
  4.707557E-01
  4.702146E-01
  4.681031E-01
  4.644863E-01
  4.615298E-01
  4.599589E-01
  4.610194E-01
  4.638573E-01
  4.681639E-01
  4.717410E-01
  4.735016E-01
  4.716920E-01
  4.672241E-01
  4.611784E-01
  4.566200E-01
  4.549202E-01
  4.574561E-01
  4.627633E-01
  4.693415E-01
  4.739722E-01
  4.775198E-01
  4.767463E-01
  4.730648E-01
  4.678912E-01
  4.655008E-01
  4.652315E-01
  4.675435E-01
  4.691076E-01
  4.700629E-01
  4.684604E-01
  4.663150E-01
  4.632862E-01
  4.623706E-01
  4.631174E-01
  4.668574E-01
  4.704475E-01
  4.733690E-01
  4.732800E-01
  4.727533E-01
  4.719520E-01
  4.728331E-01
  4.724320E-01
  4.703823E-01
  4.649130E-01
  4.595837E-01
  4.556501E-01
  4.559246E-01
  4.578450E-01
  4.605766E-01
  4.610775E-01
  4.614119E-01
  4.619549E-01
  4.654592E-01
  4.696594E-01
  4.738131E-01
  4.743609E-01
  4.725475E-01
  4.683467E-01
  4.653273E-01
  4.632733E-01
  4.638651E-01
  4.650237E-01
  4.675048E-01
  4.690126E-01
  4.702520E-01
  4.690037E-01
  4.667064E-01
  4.627260E-01
  4.602387E-01
  4.593691E-01
  4.622793E-01
  4.665420E-01
  4.714249E-01
  4.730368E-01
  4.719103E-01
  4.674368E-01
  4.630892E-01
  4.588562E-01
  4.567242E-01
  4.552744E-01
  4.565567E-01
  4.598746E-01
  4.665480E-01
  4.729675E-01
  4.832957E-01
  4.790573E-01
  4.739273E-01
  4.676492E-01
  4.651240E-01
  4.633614E-01
  4.645446E-01
  4.645336E-01
  4.657575E-01
  4.648398E-01
  4.649642E-01
  4.634404E-01
  4.640122E-01
  4.640563E-01
  4.665226E-01
  4.674924E-01
  4.691873E-01
  4.682857E-01
  4.685786E-01
  4.678289E-01
  4.693045E-01
  4.690837E-01
  4.692204E-01
  4.663568E-01
  4.645210E-01
  4.618641E-01
  4.620352E-01
  4.615501E-01
  4.629144E-01
  4.630957E-01
  4.658715E-01
  4.684020E-01
  4.727763E-01
  4.739719E-01
  4.738483E-01
  4.698711E-01
  4.672083E-01
  4.644751E-01
  4.649692E-01
  4.646174E-01
  4.657791E-01
  4.656431E-01
  4.679877E-01
  4.694649E-01
  4.716272E-01
  4.696170E-01
  4.663472E-01
  4.605004E-01
  4.578058E-01
  4.569700E-01
  4.611677E-01
  4.658834E-01
  4.719845E-01
  4.742192E-01
  4.745227E-01
  4.699467E-01
  4.650400E-01
  4.587718E-01
  4.562604E-01
  4.558079E-01
  4.608750E-01
  4.674408E-01
  4.763023E-01
  4.813025E-01
  4.780168E-01
  4.751876E-01
  4.727473E-01
  4.660509E-01
  4.643332E-01
  4.616897E-01
  4.642499E-01
  4.637561E-01
  4.658859E-01
  4.634354E-01
  4.636521E-01
  4.606623E-01
  4.623551E-01
  4.624052E-01
  4.669163E-01
  4.672056E-01
  4.684599E-01
  4.639159E-01
  4.625583E-01
  4.600987E-01
  4.641072E-01
  4.660090E-01
  4.698150E-01
  4.672410E-01
  4.663315E-01
  4.627212E-01
  4.646935E-01
  4.646680E-01
  4.675914E-01
  4.656229E-01
  4.665805E-01
  4.655122E-01
  4.700932E-01
  4.722142E-01
  4.763417E-01
  4.738655E-01
  4.718793E-01
  4.652755E-01
  4.629506E-01
  4.593553E-01
  4.615727E-01
  4.622977E-01
  4.673443E-01
  4.684699E-01
  4.711015E-01
  4.675841E-01
  4.653226E-01
  4.592117E-01
  4.581943E-01
  4.568736E-01
  4.619540E-01
  4.649943E-01
  4.704117E-01
  4.696412E-01
  4.697340E-01
  4.656464E-01
  4.661597E-01
  4.648935E-01
  4.676373E-01
  4.663765E-01
  4.681297E-01
  4.674009E-01
  4.719658E-01
  4.740109E-01
  4.760628E-01
  4.708065E-01
  4.709828E-01
  4.651724E-01
  4.660352E-01
  4.613038E-01
  4.629392E-01
  4.587533E-01
  4.611121E-01
  4.580999E-01
  4.619585E-01
  4.604589E-01
  4.654797E-01
  4.642954E-01
  4.682847E-01
  4.645166E-01
  4.652109E-01
  4.591768E-01
  4.602076E-01
  4.574146E-01
  4.629788E-01
  4.635793E-01
  4.697642E-01
  4.684005E-01
  4.720225E-01
  4.692149E-01
  4.725690E-01
  4.695379E-01
  4.721802E-01
  4.688753E-01
  4.728666E-01
  4.720187E-01
  4.771347E-01
  4.738993E-01
  4.738018E-01
  4.659367E-01
  4.650334E-01
  4.604384E-01
  4.640017E-01
  4.622433E-01
  4.665576E-01
  4.650984E-01
  4.705239E-01
  4.699402E-01
  4.737986E-01
  4.684249E-01
  4.666083E-01
  4.584353E-01
  4.585272E-01
  4.558032E-01
  4.616794E-01
  4.624188E-01
  4.687414E-01
  4.678098E-01
  4.720329E-01
  4.697107E-01
  4.734804E-01
  4.711404E-01
  4.747605E-01
  4.719751E-01
  4.753083E-01
  4.728048E-01
  4.766320E-01
  4.738714E-01
  4.666874E-01
  4.652018E-01
  4.695115E-01
  4.653029E-01
  4.674750E-01
  4.627835E-01
  4.654645E-01
  4.612063E-01
  4.638108E-01
  4.594154E-01
  4.624963E-01
  4.595936E-01
  4.649538E-01
  4.641410E-01
  4.699447E-01
  4.666631E-01
  4.675905E-01
  4.597041E-01
  4.596230E-01
  4.557542E-01
  4.624258E-01
  4.636867E-01
  4.707558E-01
  4.681919E-01
  4.710918E-01
  4.673840E-01
  4.720800E-01
  4.701258E-01
  4.740096E-01
  4.691553E-01
  4.709065E-01
  4.668241E-01
  4.714199E-01
  4.694359E-01
  4.733419E-01
  4.682379E-01
  4.687456E-01
  4.620781E-01
  4.635204E-01
  4.598355E-01
  4.652042E-01
  4.651403E-01
  4.725038E-01
  4.715479E-01
  4.750493E-01
  4.687135E-01
  4.679581E-01
  4.606545E-01
  4.623322E-01