# vtk DataFile Version 2.0
title
ASCII
DATASET STRUCTURED_GRID
DIMENSIONS   64   64    1
POINTS   4096  float
  0.000000E+00  0.000000E+00  0.000000E+00
  0.000000E+00  3.906250E-01  0.000000E+00
  0.000000E+00  7.812500E-01  0.000000E+00
  0.000000E+00  1.171875E+00  0.000000E+00
  0.000000E+00  1.562500E+00  0.000000E+00
  0.000000E+00  1.953125E+00  0.000000E+00
  0.000000E+00  2.343750E+00  0.000000E+00
  0.000000E+00  2.734375E+00  0.000000E+00
  0.000000E+00  3.125000E+00  0.000000E+00
  0.000000E+00  3.515625E+00  0.000000E+00
  0.000000E+00  3.906250E+00  0.000000E+00
  0.000000E+00  4.296875E+00  0.000000E+00
  0.000000E+00  4.687500E+00  0.000000E+00
  0.000000E+00  5.078125E+00  0.000000E+00
  0.000000E+00  5.468750E+00  0.000000E+00
  0.000000E+00  5.859375E+00  0.000000E+00
  0.000000E+00  6.250000E+00  0.000000E+00
  0.000000E+00  6.640625E+00  0.000000E+00
  0.000000E+00  7.031250E+00  0.000000E+00
  0.000000E+00  7.421875E+00  0.000000E+00
  0.000000E+00  7.812500E+00  0.000000E+00
  0.000000E+00  8.203125E+00  0.000000E+00
  0.000000E+00  8.593750E+00  0.000000E+00
  0.000000E+00  8.984375E+00  0.000000E+00
  0.000000E+00  9.375000E+00  0.000000E+00
  0.000000E+00  9.765625E+00  0.000000E+00
  0.000000E+00  1.015625E+01  0.000000E+00
  0.000000E+00  1.054688E+01  0.000000E+00
  0.000000E+00  1.093750E+01  0.000000E+00
  0.000000E+00  1.132812E+01  0.000000E+00
  0.000000E+00  1.171875E+01  0.000000E+00
  0.000000E+00  1.210938E+01  0.000000E+00
  0.000000E+00  1.250000E+01  0.000000E+00
  0.000000E+00  1.289062E+01  0.000000E+00
  0.000000E+00  1.328125E+01  0.000000E+00
  0.000000E+00  1.367188E+01  0.000000E+00
  0.000000E+00  1.406250E+01  0.000000E+00
  0.000000E+00  1.445312E+01  0.000000E+00
  0.000000E+00  1.484375E+01  0.000000E+00
  0.000000E+00  1.523438E+01  0.000000E+00
  0.000000E+00  1.562500E+01  0.000000E+00
  0.000000E+00  1.601562E+01  0.000000E+00
  0.000000E+00  1.640625E+01  0.000000E+00
  0.000000E+00  1.679688E+01  0.000000E+00
  0.000000E+00  1.718750E+01  0.000000E+00
  0.000000E+00  1.757812E+01  0.000000E+00
  0.000000E+00  1.796875E+01  0.000000E+00
  0.000000E+00  1.835938E+01  0.000000E+00
  0.000000E+00  1.875000E+01  0.000000E+00
  0.000000E+00  1.914062E+01  0.000000E+00
  0.000000E+00  1.953125E+01  0.000000E+00
  0.000000E+00  1.992188E+01  0.000000E+00
  0.000000E+00  2.031250E+01  0.000000E+00
  0.000000E+00  2.070312E+01  0.000000E+00
  0.000000E+00  2.109375E+01  0.000000E+00
  0.000000E+00  2.148438E+01  0.000000E+00
  0.000000E+00  2.187500E+01  0.000000E+00
  0.000000E+00  2.226562E+01  0.000000E+00
  0.000000E+00  2.265625E+01  0.000000E+00
  0.000000E+00  2.304688E+01  0.000000E+00
  0.000000E+00  2.343750E+01  0.000000E+00
  0.000000E+00  2.382812E+01  0.000000E+00
  0.000000E+00  2.421875E+01  0.000000E+00
  0.000000E+00  2.460938E+01  0.000000E+00
  3.906250E-01  0.000000E+00  0.000000E+00
  3.906250E-01  3.906250E-01  0.000000E+00
  3.906250E-01  7.812500E-01  0.000000E+00
  3.906250E-01  1.171875E+00  0.000000E+00
  3.906250E-01  1.562500E+00  0.000000E+00
  3.906250E-01  1.953125E+00  0.000000E+00
  3.906250E-01  2.343750E+00  0.000000E+00
  3.906250E-01  2.734375E+00  0.000000E+00
  3.906250E-01  3.125000E+00  0.000000E+00
  3.906250E-01  3.515625E+00  0.000000E+00
  3.906250E-01  3.906250E+00  0.000000E+00
  3.906250E-01  4.296875E+00  0.000000E+00
  3.906250E-01  4.687500E+00  0.000000E+00
  3.906250E-01  5.078125E+00  0.000000E+00
  3.906250E-01  5.468750E+00  0.000000E+00
  3.906250E-01  5.859375E+00  0.000000E+00
  3.906250E-01  6.250000E+00  0.000000E+00
  3.906250E-01  6.640625E+00  0.000000E+00
  3.906250E-01  7.031250E+00  0.000000E+00
  3.906250E-01  7.421875E+00  0.000000E+00
  3.906250E-01  7.812500E+00  0.000000E+00
  3.906250E-01  8.203125E+00  0.000000E+00
  3.906250E-01  8.593750E+00  0.000000E+00
  3.906250E-01  8.984375E+00  0.000000E+00
  3.906250E-01  9.375000E+00  0.000000E+00
  3.906250E-01  9.765625E+00  0.000000E+00
  3.906250E-01  1.015625E+01  0.000000E+00
  3.906250E-01  1.054688E+01  0.000000E+00
  3.906250E-01  1.093750E+01  0.000000E+00
  3.906250E-01  1.132812E+01  0.000000E+00
  3.906250E-01  1.171875E+01  0.000000E+00
  3.906250E-01  1.210938E+01  0.000000E+00
  3.906250E-01  1.250000E+01  0.000000E+00
  3.906250E-01  1.289062E+01  0.000000E+00
  3.906250E-01  1.328125E+01  0.000000E+00
  3.906250E-01  1.367188E+01  0.000000E+00
  3.906250E-01  1.406250E+01  0.000000E+00
  3.906250E-01  1.445312E+01  0.000000E+00
  3.906250E-01  1.484375E+01  0.000000E+00
  3.906250E-01  1.523438E+01  0.000000E+00
  3.906250E-01  1.562500E+01  0.000000E+00
  3.906250E-01  1.601562E+01  0.000000E+00
  3.906250E-01  1.640625E+01  0.000000E+00
  3.906250E-01  1.679688E+01  0.000000E+00
  3.906250E-01  1.718750E+01  0.000000E+00
  3.906250E-01  1.757812E+01  0.000000E+00
  3.906250E-01  1.796875E+01  0.000000E+00
  3.906250E-01  1.835938E+01  0.000000E+00
  3.906250E-01  1.875000E+01  0.000000E+00
  3.906250E-01  1.914062E+01  0.000000E+00
  3.906250E-01  1.953125E+01  0.000000E+00
  3.906250E-01  1.992188E+01  0.000000E+00
  3.906250E-01  2.031250E+01  0.000000E+00
  3.906250E-01  2.070312E+01  0.000000E+00
  3.906250E-01  2.109375E+01  0.000000E+00
  3.906250E-01  2.148438E+01  0.000000E+00
  3.906250E-01  2.187500E+01  0.000000E+00
  3.906250E-01  2.226562E+01  0.000000E+00
  3.906250E-01  2.265625E+01  0.000000E+00
  3.906250E-01  2.304688E+01  0.000000E+00
  3.906250E-01  2.343750E+01  0.000000E+00
  3.906250E-01  2.382812E+01  0.000000E+00
  3.906250E-01  2.421875E+01  0.000000E+00
  3.906250E-01  2.460938E+01  0.000000E+00
  7.812500E-01  0.000000E+00  0.000000E+00
  7.812500E-01  3.906250E-01  0.000000E+00
  7.812500E-01  7.812500E-01  0.000000E+00
  7.812500E-01  1.171875E+00  0.000000E+00
  7.812500E-01  1.562500E+00  0.000000E+00
  7.812500E-01  1.953125E+00  0.000000E+00
  7.812500E-01  2.343750E+00  0.000000E+00
  7.812500E-01  2.734375E+00  0.000000E+00
  7.812500E-01  3.125000E+00  0.000000E+00
  7.812500E-01  3.515625E+00  0.000000E+00
  7.812500E-01  3.906250E+00  0.000000E+00
  7.812500E-01  4.296875E+00  0.000000E+00
  7.812500E-01  4.687500E+00  0.000000E+00
  7.812500E-01  5.078125E+00  0.000000E+00
  7.812500E-01  5.468750E+00  0.000000E+00
  7.812500E-01  5.859375E+00  0.000000E+00
  7.812500E-01  6.250000E+00  0.000000E+00
  7.812500E-01  6.640625E+00  0.000000E+00
  7.812500E-01  7.031250E+00  0.000000E+00
  7.812500E-01  7.421875E+00  0.000000E+00
  7.812500E-01  7.812500E+00  0.000000E+00
  7.812500E-01  8.203125E+00  0.000000E+00
  7.812500E-01  8.593750E+00  0.000000E+00
  7.812500E-01  8.984375E+00  0.000000E+00
  7.812500E-01  9.375000E+00  0.000000E+00
  7.812500E-01  9.765625E+00  0.000000E+00
  7.812500E-01  1.015625E+01  0.000000E+00
  7.812500E-01  1.054688E+01  0.000000E+00
  7.812500E-01  1.093750E+01  0.000000E+00
  7.812500E-01  1.132812E+01  0.000000E+00
  7.812500E-01  1.171875E+01  0.000000E+00
  7.812500E-01  1.210938E+01  0.000000E+00
  7.812500E-01  1.250000E+01  0.000000E+00
  7.812500E-01  1.289062E+01  0.000000E+00
  7.812500E-01  1.328125E+01  0.000000E+00
  7.812500E-01  1.367188E+01  0.000000E+00
  7.812500E-01  1.406250E+01  0.000000E+00
  7.812500E-01  1.445312E+01  0.000000E+00
  7.812500E-01  1.484375E+01  0.000000E+00
  7.812500E-01  1.523438E+01  0.000000E+00
  7.812500E-01  1.562500E+01  0.000000E+00
  7.812500E-01  1.601562E+01  0.000000E+00
  7.812500E-01  1.640625E+01  0.000000E+00
  7.812500E-01  1.679688E+01  0.000000E+00
  7.812500E-01  1.718750E+01  0.000000E+00
  7.812500E-01  1.757812E+01  0.000000E+00
  7.812500E-01  1.796875E+01  0.000000E+00
  7.812500E-01  1.835938E+01  0.000000E+00
  7.812500E-01  1.875000E+01  0.000000E+00
  7.812500E-01  1.914062E+01  0.000000E+00
  7.812500E-01  1.953125E+01  0.000000E+00
  7.812500E-01  1.992188E+01  0.000000E+00
  7.812500E-01  2.031250E+01  0.000000E+00
  7.812500E-01  2.070312E+01  0.000000E+00
  7.812500E-01  2.109375E+01  0.000000E+00
  7.812500E-01  2.148438E+01  0.000000E+00
  7.812500E-01  2.187500E+01  0.000000E+00
  7.812500E-01  2.226562E+01  0.000000E+00
  7.812500E-01  2.265625E+01  0.000000E+00
  7.812500E-01  2.304688E+01  0.000000E+00
  7.812500E-01  2.343750E+01  0.000000E+00
  7.812500E-01  2.382812E+01  0.000000E+00
  7.812500E-01  2.421875E+01  0.000000E+00
  7.812500E-01  2.460938E+01  0.000000E+00
  1.171875E+00  0.000000E+00  0.000000E+00
  1.171875E+00  3.906250E-01  0.000000E+00
  1.171875E+00  7.812500E-01  0.000000E+00
  1.171875E+00  1.171875E+00  0.000000E+00
  1.171875E+00  1.562500E+00  0.000000E+00
  1.171875E+00  1.953125E+00  0.000000E+00
  1.171875E+00  2.343750E+00  0.000000E+00
  1.171875E+00  2.734375E+00  0.000000E+00
  1.171875E+00  3.125000E+00  0.000000E+00
  1.171875E+00  3.515625E+00  0.000000E+00
  1.171875E+00  3.906250E+00  0.000000E+00
  1.171875E+00  4.296875E+00  0.000000E+00
  1.171875E+00  4.687500E+00  0.000000E+00
  1.171875E+00  5.078125E+00  0.000000E+00
  1.171875E+00  5.468750E+00  0.000000E+00
  1.171875E+00  5.859375E+00  0.000000E+00
  1.171875E+00  6.250000E+00  0.000000E+00
  1.171875E+00  6.640625E+00  0.000000E+00
  1.171875E+00  7.031250E+00  0.000000E+00
  1.171875E+00  7.421875E+00  0.000000E+00
  1.171875E+00  7.812500E+00  0.000000E+00
  1.171875E+00  8.203125E+00  0.000000E+00
  1.171875E+00  8.593750E+00  0.000000E+00
  1.171875E+00  8.984375E+00  0.000000E+00
  1.171875E+00  9.375000E+00  0.000000E+00
  1.171875E+00  9.765625E+00  0.000000E+00
  1.171875E+00  1.015625E+01  0.000000E+00
  1.171875E+00  1.054688E+01  0.000000E+00
  1.171875E+00  1.093750E+01  0.000000E+00
  1.171875E+00  1.132812E+01  0.000000E+00
  1.171875E+00  1.171875E+01  0.000000E+00
  1.171875E+00  1.210938E+01  0.000000E+00
  1.171875E+00  1.250000E+01  0.000000E+00
  1.171875E+00  1.289062E+01  0.000000E+00
  1.171875E+00  1.328125E+01  0.000000E+00
  1.171875E+00  1.367188E+01  0.000000E+00
  1.171875E+00  1.406250E+01  0.000000E+00
  1.171875E+00  1.445312E+01  0.000000E+00
[...]
POINT_DATA   4096
SCALARS CON  float  1
LOOKUP_TABLE default
  4.713749E-01
  4.738989E-01
  4.826312E-01
  4.779529E-01
  4.780777E-01
  4.689650E-01
  4.713273E-01
  4.688998E-01
  4.769677E-01
  4.749316E-01
  4.779781E-01
  4.692496E-01
  4.687582E-01
  4.620973E-01
  4.677213E-01
  4.674949E-01
  4.762057E-01
  4.741455E-01
  4.776902E-01
  4.702389E-01
  4.707506E-01
  4.630538E-01
  4.645237E-01
  4.577127E-01
  4.601099E-01
  4.557373E-01
  4.628128E-01
  4.639984E-01
  4.744196E-01
  4.739161E-01
  4.782208E-01
  4.709574E-01
  4.723155E-01
  4.673280E-01
  4.733582E-01
  4.710584E-01
  4.753188E-01
  4.680940E-01
  4.680119E-01
  4.598698E-01
  4.620033E-01
  4.568353E-01
  4.603276E-01
  4.547049E-01
  4.579143E-01
  4.548908E-01
  4.644578E-01
  4.691318E-01
  4.827264E-01
  4.827765E-01
  4.836140E-01
  4.695083E-01
  4.637164E-01
  4.552687E-01
  4.643645E-01
  4.723472E-01
  4.905726E-01
  4.944584E-01
  4.977283E-01
  4.844142E-01
  4.771816E-01
  4.636804E-01
  4.639736E-01
  4.613188E-01
  4.724230E-01
  4.767593E-01
  4.868636E-01
  4.848526E-01
  4.838525E-01
  4.722970E-01
  4.689732E-01
  4.631463E-01
  4.691542E-01
  4.705237E-01
  4.779816E-01
  4.750888E-01
  4.759969E-01
  4.684141E-01
  4.688516E-01
  4.648436E-01
  4.704322E-01
  4.699210E-01
  4.751867E-01
  4.707045E-01
  4.710335E-01
  4.638295E-01
  4.649172E-01
  4.608391E-01
  4.649894E-01
  4.624405E-01
  4.669463E-01
  4.649679E-01
  4.710339E-01
  4.706958E-01
  4.768125E-01
  4.738714E-01
  4.755653E-01
  4.685109E-01
  4.683743E-01
  4.625459E-01
  4.656973E-01
  4.631856E-01
  4.676621E-01
  4.636514E-01
  4.646549E-01
  4.571978E-01
  4.565755E-01
  4.502166E-01
  4.532233E-01
  4.526515E-01
  4.627792E-01
  4.685400E-01
  4.806655E-01
  4.806214E-01
  4.804964E-01
  4.685723E-01
  4.650431E-01
  4.614045E-01
  4.732190E-01
  4.829652E-01
  4.977637E-01
  4.971256E-01
  4.943851E-01
  4.794847E-01
  4.724256E-01
  4.624225E-01
  4.641094E-01
  4.629981E-01
  4.633867E-01
  4.759919E-01
  4.877719E-01
  4.892934E-01
  4.842637E-01
  4.728032E-01
  4.653486E-01
  4.614176E-01
  4.652425E-01
  4.697476E-01
  4.756246E-01
  4.761481E-01
  4.754251E-01
  4.708916E-01
  4.690554E-01
  4.669660E-01
  4.687918E-01
  4.692110E-01
  4.713493E-01
  4.703235E-01
  4.705285E-01
  4.681462E-01
  4.677613E-01
  4.651878E-01
  4.648137E-01
  4.628056E-01
  4.639157E-01
  4.639383E-01
  4.664073E-01
  4.659476E-01
  4.662669E-01
  4.636345E-01
  4.636394E-01
  4.630532E-01
  4.660401E-01
  4.671006E-01
  4.690569E-01
  4.669975E-01
  4.655669E-01
  4.612647E-01
  4.589128E-01
  4.545544E-01
  4.527476E-01
  4.499376E-01
  4.513933E-01
  4.539474E-01
  4.620247E-01
  4.699710E-01
  4.788142E-01
  4.806102E-01
  4.781751E-01
  4.694511E-01
  4.637437E-01
  4.616413E-01
  4.694127E-01
  4.805991E-01
  4.934688E-01
  4.970338E-01
  4.926982E-01
  4.785690E-01
  4.647002E-01
  4.522935E-01
  4.489818E-01
  4.516701E-01
  4.636607E-01
  4.770560E-01
  4.845704E-01
  4.892641E-01
  4.806644E-01
  4.705762E-01
  4.570146E-01
  4.534573E-01
  4.534042E-01
  4.631799E-01
  4.703461E-01
  4.786754E-01
  4.772663E-01
  4.751921E-01
  4.672268E-01
  4.652766E-01
  4.630577E-01
  4.683820E-01
  4.705248E-01
  4.751292E-01
  4.727239E-01
  4.726490E-01
  4.684204E-01
  4.694453E-01
  4.669587E-01
  4.681000E-01
  4.640276E-01
  4.638270E-01
  4.607308E-01
  4.638940E-01
  4.643600E-01
  4.684591E-01
  4.660728E-01
  4.653122E-01
  4.595847E-01
  4.596544E-01
  4.587324E-01
  4.643925E-01
  4.658385E-01
  4.687625E-01
  4.639970E-01
  4.613552E-01
  4.552199E-01
  4.559202E-01
  4.557664E-01
  4.622511E-01
  4.657754E-01
  4.731129E-01
  4.741422E-01
  4.756771E-01
  4.692968E-01
  4.656628E-01
  4.603173E-01
  4.645837E-01
  4.703413E-01
  4.824025E-01
  4.868897E-01
  4.881734E-01
  4.781342E-01
  4.692565E-01
  4.577247E-01
  4.542997E-01
  4.513685E-01
  4.572513E-01
  4.585571E-01
  4.753299E-01
  4.799343E-01
  4.860390E-01
  4.740361E-01
  4.669162E-01
  4.522915E-01
  4.527610E-01
  4.507687E-01
  4.623602E-01
  4.655543E-01
  4.753306E-01
  4.714029E-01
  4.733046E-01
  4.650010E-01
  4.675481E-01
  4.636011E-01
  4.711702E-01
  4.702109E-01
  4.775376E-01
  4.734083E-01
  4.764479E-01
  4.687182E-01
  4.696995E-01
  4.615927E-01
  4.634741E-01
  4.573118E-01
  4.616552E-01
  4.577971E-01
  4.634977E-01
  4.596949E-01
  4.645715E-01
  4.598725E-01
  4.646872E-01
  4.610520E-01
  4.674053E-01
  4.646483E-01
  4.703935E-01
  4.654366E-01
  4.681760E-01
  4.606995E-01
  4.628159E-01
  4.573989E-01
  4.634973E-01
  4.623175E-01
  4.711334E-01
  4.700117E-01
  4.764785E-01
  4.713377E-01
  4.731461E-01
  4.638861E-01
  4.635337E-01
  4.556870E-01
  4.605695E-01
  4.603972E-01
  4.721126E-01
  4.739004E-01
  4.808997E-01
  4.728433E-01
  4.695944E-01
  4.556286E-01
  4.528046E-01
  4.455624E-01
  4.536925E-01
  4.645228E-01
  4.754304E-01
  4.749962E-01
  4.806991E-01
  4.693821E-01
  4.643791E-01
  4.493398E-01
  4.495148E-01
  4.460437E-01
  4.584691E-01
  4.624227E-01
  4.745254E-01
  4.708268E-01
  4.728954E-01
  4.627169E-01
  4.652429E-01
  4.617690E-01
  4.727169E-01
  4.739260E-01
  4.828853E-01
  4.764991E-01
  4.771396E-01
  4.663261E-01
  4.674068E-01
  4.597144E-01
  4.633643E-01
  4.567061E-01
  4.611489E-01
  4.570611E-01
  4.660679E-01
  4.660789E-01
  4.754189E-01
  4.704275E-01
  4.720455E-01
  4.616689E-01
  4.639358E-01
  4.598867E-01
  4.695437E-01
  4.686076E-01
  4.751845E-01
  4.677133E-01
  4.697530E-01
  4.634083E-01
  4.711240E-01
  4.705414E-01
  4.798069E-01
  4.752975E-01
  4.778589E-01
  4.675511E-01
  4.672570E-01
  4.572026E-01
  4.593970E-01
  4.537860E-01
  4.615446E-01
  4.608332E-01
  4.703828E-01
  4.668261E-01
  4.705571E-01
  4.618594E-01
  4.641104E-01
  4.575649E-01
  4.629594E-01
  4.586938E-01
  4.658978E-01
  4.627333E-01
  4.715642E-01
  4.714939E-01
  4.756582E-01
  4.673159E-01
  4.643938E-01
  4.545071E-01
  4.560453E-01
  4.540254E-01
  4.627197E-01
  4.639091E-01
  4.708923E-01
  4.667556E-01
  4.684352E-01
  4.624896E-01
  4.669023E-01
  4.665880E-01
  4.762018E-01
  4.774388E-01
  4.836862E-01
  4.776899E-01
  4.761580E-01
  4.651343E-01
  4.626163E-01
  4.542949E-01
  4.565158E-01
  4.535235E-01
  4.603727E-01
  4.604315E-01
  4.683871E-01
  4.675469E-01
  4.732204E-01
  4.696028E-01
  4.733595E-01
  4.695929E-01
  4.745932E-01
  4.719460E-01
  4.763476E-01
  4.710033E-01
  4.719782E-01
  4.648209E-01
  4.673820E-01
  4.651281E-01
  4.734331E-01
  4.743757E-01
  4.812054E-01
  4.763950E-01
  4.763803E-01
  4.670915E-01
  4.662695E-01
  4.589371E-01
  4.607851E-01
  4.557873E-01
  4.595718E-01
  4.565343E-01
  4.622925E-01
  4.606118E-01
  4.665644E-01
  4.636996E-01
  4.674881E-01
  4.621975E-01
  4.642190E-01
  4.589320E-01
  4.634587E-01
  4.674738E-01
  4.684363E-01
  4.682954E-01
  4.713033E-01
  4.692058E-01
  4.673920E-01
  4.614839E-01
  4.601222E-01
  4.592706E-01
  4.647033E-01
  4.682423E-01
  4.728434E-01
  4.706869E-01
  4.685521E-01
  4.633806E-01
  4.644405E-01
  4.673173E-01
  4.765335E-01
  4.820798E-01
  4.857914E-01
  4.800663E-01
  4.731574E-01
  4.631429E-01
  4.592342E-01
  4.562359E-01
  4.588534E-01
  4.595275E-01
  4.635004E-01
  4.652829E-01
  4.713923E-01
  4.751854E-01
  4.806156E-01
  4.796161E-01
  4.781062E-01
  4.722942E-01
  4.712363E-01
  4.704054E-01
  4.745626E-01
  4.748119E-01
  4.751538E-01
  4.701866E-01
  4.686779E-01
  4.672287E-01
  4.721051E-01
  4.749977E-01
  4.787432E-01
  4.756735E-01
  4.727870E-01
  4.664055E-01
  4.643862E-01
  4.612579E-01
  4.626328E-01
  4.621094E-01
  4.651766E-01
  4.650537E-01
  4.666309E-01
  4.635122E-01
  4.627150E-01
  4.603088E-01
  4.636387E-01
  4.660862E-01
  4.712473E-01
  4.709408E-01
  4.710279E-01
  4.610732E-01
  4.619530E-01
  4.656081E-01
  4.686417E-01
  4.715154E-01
  4.716939E-01
  4.717397E-01
  4.709042E-01
  4.719821E-01
  4.727886E-01
  4.741199E-01
  4.727538E-01
  4.704212E-01
  4.664966E-01
  4.651360E-01
  4.660738E-01
  4.713219E-01
  4.771214E-01
  4.824162E-01
  4.825307E-01
  4.786616E-01
  4.705203E-01
  4.630713E-01
  4.571019E-01
  4.560235E-01
  4.578420E-01
  4.631009E-01
  4.677464E-01
  4.719088E-01
  4.728988E-01
  4.731818E-01
  4.720031E-01
  4.725103E-01
  4.734526E-01
  4.766393E-01
  4.789778E-01
  4.806995E-01
  4.785161E-01
  4.744484E-01
  4.681587E-01
  4.639872E-01
  4.618334E-01
  4.639361E-01
  4.670004E-01
  4.707975E-01
  4.717004E-01
  4.714774E-01
  4.693915E-01
  4.688390E-01
  4.683958E-01
  4.694272E-01
  4.690184E-01
  4.686937E-01
  4.668409E-01
  4.661318E-01
  4.651642E-01
  4.660434E-01
  4.666243E-01
  4.684048E-01
  4.687833E-01
  4.690406E-01
  4.668692E-01
  4.646156E-01
  4.615542E-01
  4.614027E-01
  4.587554E-01
  4.624210E-01
  4.668488E-01
  4.735004E-01
  4.753337E-01
  4.762573E-01
  4.735311E-01
  4.738737E-01
  4.738412E-01
  4.767654E-01
  4.759851E-01
  4.744690E-01
  4.685116E-01
  4.652156E-01
  4.631738E-01
  4.680726E-01
  4.739113E-01
  4.810887E-01
  4.811428E-01
  4.773631E-01
  4.679347E-01
  4.617861E-01
  4.579528E-01
  4.614460E-01
  4.659253E-01
  4.726888E-01
  4.749822E-01
  4.768414E-01
  4.750927E-01
  4.755539E-01
  4.741020E-01
  4.745770E-01
  4.722358E-01
  4.721244E-01
  4.708238E-01
  4.729028E-01
  4.727388E-01
  4.730950E-01
  4.689770E-01
  4.660184E-01
  4.619772E-01
  4.627035E-01
  4.635097E-01
  4.671010E-01
  4.674973E-01
  4.688948E-01
  4.678942E-01
  4.698227E-01
  4.701123E-01
  4.722770E-01
  4.714255E-01
  4.724978E-01
  4.718977E-01
  4.740229E-01
  4.733865E-01
  4.734029E-01
  4.699969E-01
  4.692292E-01
  4.680902E-01
  4.706266E-01
  4.703859E-01
  4.698335E-01
  4.646037E-01
  4.539054E-01
  4.552802E-01
  4.601267E-01
  4.662226E-01
  4.725340E-01
  4.764496E-01
  4.782635E-01
  4.778005E-01
  4.772239E-01
  4.763356E-01
  4.756931E-01
  4.735208E-01
  4.703901E-01
  4.663313E-01
  4.640345E-01
  4.640904E-01
  4.675519E-01
  4.721034E-01
  4.761661E-01
  4.765452E-01
  4.734376E-01
  4.673750E-01
  4.620238E-01
  4.591962E-01
  4.612623E-01
  4.668858E-01
  4.744625E-01
  4.795405E-01
  4.803626E-01
  4.759481E-01
  4.696786E-01
  4.641021E-01
  4.626133E-01
  4.648050E-01
  4.699936E-01
  4.744006E-01
  4.761840E-01
  4.733834E-01
  4.680974E-01
  4.620362E-01
  4.584975E-01
  4.575379E-01
  4.593425E-01
  4.614716E-01
  4.635947E-01
  4.646936E-01
  4.664411E-01
  4.686711E-01
  4.720246E-01
  4.743207E-01
  4.750835E-01
  4.731539E-01
  4.706412E-01
  4.685494E-01
  4.691267E-01
  4.714933E-01
  4.753101E-01
  4.779331E-01
  4.788440E-01
  4.765756E-01
  4.723204E-01
  4.661382E-01
  4.603056E-01
  4.554895E-01
  4.569522E-01
  4.568557E-01
  4.587772E-01
  4.657591E-01
  4.707736E-01
  4.751750E-01
  4.738503E-01
  4.725056E-01
  4.694547E-01
  4.704092E-01
  4.706270E-01
  4.723033E-01
  4.695493E-01
  4.666892E-01
  4.615978E-01
  4.611215E-01
  4.625750E-01
  4.691920E-01
  4.736717E-01
  4.767475E-01
  4.728178E-01
  4.678942E-01
  4.615505E-01
  4.612606E-01
  4.638353E-01
  4.717268E-01
  4.773731E-01
  4.818161E-01
  4.797143E-01
  4.766490E-01
  4.708462E-01
  4.682327E-01
  4.649581E-01
  4.648051E-01
  4.633472E-01
  4.647694E-01
  4.646941E-01
  4.665860E-01
  4.654038E-01
  4.650826E-01
  4.621383E-01
  4.619065E-01
  4.609674E-01
  4.633069E-01
  4.639910E-01
  4.666720E-01
  4.672794E-01
  4.702457E-01
  4.709662E-01
  4.725496E-01
  4.700744E-01
  4.684925E-01
  4.656760E-01
  4.676705E-01
  4.704285E-01
  4.762685E-01
  4.784833E-01
  4.799998E-01
  4.772301E-01
  4.759148E-01
  4.726025E-01
  4.709804E-01
  4.660113E-01
  4.621366E-01
  4.547095E-01
  4.582760E-01
  4.599173E-01
  4.660206E-01
  4.681310E-01
  4.724595E-01
  4.711230E-01
  4.719094E-01
  4.684578E-01
  4.688987E-01
  4.659646E-01
  4.665422E-01
  4.630182E-01
  4.631410E-01
  4.605757E-01
  4.634585E-01
  4.645892E-01
  4.704919E-01
  4.723701E-01
  4.759418E-01
  4.727822E-01
  4.705600E-01
  4.636233E-01
  4.617987E-01
  4.599162E-01
  4.657958E-01
  4.703685E-01
  4.774842E-01
  4.765642E-01
  4.742748E-01
  4.655133E-01
  4.613536E-01
  4.573185E-01
  4.612102E-01
  4.639249E-01
  4.697779E-01
  4.690403E-01
  4.686569E-01
  4.628939E-01
  4.614058E-01
  4.584211E-01
  4.612966E-01
  4.616708E-01
  4.656073E-01
  4.652335E-01
  4.681719E-01
  4.676514E-01
  4.710555E-01
  4.702646E-01
  4.715645E-01
  4.671940E-01
  4.653671E-01
  4.605989E-01
  4.620215E-01
  4.631587E-01
  4.706169E-01
  4.750389E-01
  4.813007E-01
  4.801868E-01
  4.787886E-01
  4.709248E-01
  4.659996E-01
  4.585772E-01
  4.571341E-01
  4.636441E-01
  4.640473E-01
  4.627818E-01
  4.664473E-01
  4.672027E-01
  4.699489E-01
  4.673392E-01
  4.666979E-01
  4.630167E-01
  4.639969E-01
  4.629509E-01
  4.653057E-01
  4.634172E-01
  4.637922E-01
  4.610128E-01
  4.632303E-01
  4.648477E-01
  4.718512E-01
  4.755505E-01
  4.799196E-01
  4.767462E-01
  4.732558E-01
  4.653363E-01
  4.625182E-01
  4.599887E-01
  4.640365E-01
  4.662604E-01
  4.709203E-01
  4.700775E-01
  4.705999E-01
  4.671584E-01
  4.673553E-01
  4.647204E-01
  4.653901E-01
  4.626623E-01
  4.635269E-01
  4.619960E-01
  4.646941E-01
  4.644440E-01
  4.670442E-01
  4.656995E-01
  4.674394E-01
  4.663388E-01
  4.691229E-01
  4.687481E-01
  4.711521E-01
  4.693998E-01
  4.700711E-01
  4.666244E-01
  4.657234E-01
  4.612751E-01
  4.609739E-01
  4.596146E-01
  4.642805E-01
  4.674552E-01
  4.734840E-01
  4.736617E-01
  4.740578E-01
  4.694072E-01
  4.684062E-01
  4.657058E-01
  4.675645E-01
  4.661181E-01
  4.669321E-01
  4.664074E-01
  4.688162E-01
  4.675541E-01
  4.677417E-01
  4.664385E-01
  4.680409E-01
  4.679172E-01
  4.692896E-01
  4.675368E-01
  4.667605E-01
  4.634080E-01
  4.623365E-01
  4.603179E-01
  4.620139E-01
  4.634587E-01
  4.681552E-01
  4.711502E-01
  4.758015E-01
  4.776089E-01
  4.801764E-01
  4.785098E-01
  4.759173E-01
  4.685419E-01
  4.623146E-01
  4.559192E-01
  4.554558E-01
  4.568929E-01
  4.620713E-01
  4.639379E-01
  4.648796E-01
  4.616459E-01
  4.608148E-01
  4.604805E-01
  4.649119E-01
  4.682662E-01
  4.721227E-01
  4.709328E-01
  4.692664E-01
  4.649464E-01
  4.639532E-01
  4.630599E-01
  4.659393E-01
  4.674429E-01
  4.705417E-01
  4.704812E-01
  4.711797E-01
  4.687502E-01
  4.676705E-01
  4.643531E-01
  4.634131E-01
  4.612932E-01
  4.623339E-01
  4.623861E-01
  4.650609E-01
  4.657409E-01
  4.680226E-01
  4.674487E-01
  4.677540E-01
  4.647122E-01
  4.628642E-01
  4.593664E-01
  4.596725E-01
  4.602999E-01
  4.644715E-01
  4.783303E-01
  4.765116E-01
  4.720713E-01
  4.688197E-01
  4.666378E-01
  4.666494E-01
  4.665289E-01
  4.668473E-01
  4.660232E-01
  4.656034E-01
  4.644850E-01
  4.642154E-01
  4.636504E-01
  4.644513E-01
  4.655652E-01
  4.684699E-01
  4.716196E-01
  4.758306E-01
  4.788403E-01
  4.808869E-01
  4.795698E-01
  4.759415E-01
  4.694729E-01
  4.633529E-01
  4.581068E-01
  4.560594E-01
  4.556345E-01
  4.572331E-01
  4.586805E-01
  4.611438E-01
  4.634840E-01
  4.669434E-01
  4.693218E-01
  4.708628E-01
  4.697688E-01
  4.681715E-01
  4.661713E-01
  4.661347E-01
  4.665594E-01
  4.679262E-01
  4.682779E-01
  4.691975E-01
  4.698926E-01
  4.717047E-01
  4.723029E-01
  4.718115E-01
  4.684430E-01
  4.644493E-01
  4.601711E-01
  4.585652E-01
  4.591222E-01
  4.630258E-01
  4.677148E-01
  4.725154E-01
  4.738822E-01
  4.718592E-01
  4.654852E-01
  4.583413E-01
  4.521815E-01
  4.509327E-01
  4.541411E-01
  4.619473E-01
  4.701296E-01
  4.767388E-01
  4.804028E-01
  4.800468E-01
  4.756100E-01
  4.694700E-01
  4.656201E-01
  4.647720E-01
  4.669026E-01
  4.691549E-01
  4.702174E-01
  4.685102E-01
  4.655375E-01
  4.623700E-01
  4.615674E-01
  4.631880E-01
  4.672606E-01
  4.711804E-01
  4.739292E-01
  4.743656E-01
  4.743280E-01
  4.743167E-01
  4.749879E-01
  4.740185E-01
  4.705927E-01
  4.641827E-01
  4.578173E-01
  4.535017E-01
  4.532136E-01
  4.552096E-01
  4.579855E-01
  4.592523E-01
  4.601325E-01
  4.616161E-01
  4.656772E-01
  4.708971E-01
  4.756891E-01
  4.769166E-01
  4.746274E-01
  4.694987E-01
  4.647886E-01
  4.618111E-01
  4.620516E-01
  4.642532E-01
  4.678626E-01
  4.705456E-01
  4.716417E-01
  4.697008E-01
  4.659236E-01
  4.611296E-01
  4.581199E-01
  4.577778E-01
  4.612036E-01
  4.664049E-01
  4.716215E-01
  4.735839E-01
  4.719752E-01
  4.669660E-01
  4.613799E-01
  4.562626E-01
  4.532204E-01
  4.519561E-01
  4.538672E-01
  4.588366E-01
  4.670042E-01
  4.750959E-01
  4.871355E-01
  4.821083E-01
  4.762354E-01
  4.682939E-01
  4.650370E-01
  4.623489E-01
  4.637587E-01
  4.634660E-01
  4.650280E-01
  4.636944E-01
  4.642944E-01
  4.629396E-01
  4.646094E-01
  4.648613E-01
  4.676629E-01
  4.677245E-01
  4.691140E-01
  4.676123E-01
  4.685296E-01
  4.679360E-01
  4.700751E-01
  4.694675E-01
  4.697006E-01
  4.662019E-01
  4.643647E-01
  4.607620E-01
  4.604314E-01
  4.589038E-01
  4.606488E-01
  4.615072E-01
  4.662578E-01
  4.699053E-01
  4.753445E-01
  4.760872E-01
  4.757366E-01
  4.706816E-01
  4.676184E-01
  4.637904E-01
  4.640355E-01
  4.631597E-01
  4.650544E-01
  4.653506E-01
  4.687587E-01
  4.701035E-01
  4.722041E-01
  4.689881E-01
  4.650755E-01
  4.579929E-01
  4.550409E-01
  4.538136E-01
  4.591008E-01
  4.649816E-01
  4.731977E-01
  4.763032E-01
  4.770277E-01
  4.709315E-01
  4.644420E-01
  4.559151E-01
  4.526131E-01
  4.519147E-01
  4.586239E-01
  4.668783E-01
  4.781593E-01
  4.842720E-01
  4.803469E-01
  4.769213E-01
  4.748846E-01
  4.662712E-01
  4.641333E-01
  4.598502E-01
  4.631843E-01
  4.622892E-01
  4.655420E-01
  4.620665E-01
  4.627467E-01
  4.590276E-01
  4.623803E-01
  4.627011E-01
  4.686066E-01
  4.675989E-01
  4.685340E-01
  4.620843E-01
  4.611374E-01
  4.580990E-01
  4.635087E-01
  4.651786E-01
  4.703323E-01
  4.672788E-01
  4.672882E-01
  4.625329E-01
  4.647443E-01
  4.633623E-01
  4.670439E-01
  4.647067E-01
  4.672591E-01
  4.660988E-01
  4.721229E-01
  4.738865E-01
  4.791653E-01
  4.756846E-01
  4.736512E-01
  4.647202E-01
  4.617317E-01
  4.565344E-01
  4.598880E-01
  4.609817E-01
  4.682681E-01
  4.693603E-01
  4.725698E-01
  4.669911E-01
  4.640095E-01
  4.559020E-01
  4.553691E-01
  4.537733E-01
  4.608337E-01
  4.643978E-01
  4.717906E-01
  4.708180E-01
  4.718279E-01
  4.665025E-01
  4.671562E-01
  4.642512E-01
  4.671458E-01
  4.647191E-01
  4.674493E-01
  4.664638E-01
  4.727001E-01
  4.747866E-01
  4.781681E-01
  4.716311E-01
  4.720524E-01
  4.642866E-01
  4.652359E-01
  4.589825E-01
  4.614002E-01
  4.562715E-01
  4.596700E-01
  4.558142E-01
  4.609747E-01
  4.591598E-01
  4.659935E-01
  4.644759E-01
  4.694922E-01
  4.640764E-01
  4.646981E-01
  4.567705E-01
  4.583044E-01
  4.545735E-01
  4.614868E-01
  4.617996E-01
  4.699146E-01
  4.686173E-01
  4.739657E-01
  4.702100E-01
  4.738813E-01
  4.690209E-01
  4.723269E-01
  4.685867E-01
  4.746484E-01
  4.737937E-01
  4.802845E-01
  4.757752E-01
  4.758986E-01
  4.659781E-01
  4.648628E-01
  4.582656E-01
  4.623193E-01
  4.599724E-01
  4.664129E-01
  4.654333E-01
  4.729466E-01
  4.716684E-01
  4.759540E-01
  4.684418E-01
  4.662447E-01
  4.558427E-01
  4.560134E-01
  4.521370E-01
  4.596660E-01
  4.608835E-01
  4.698628E-01
  4.692372E-01
  4.750027E-01
  4.715329E-01
  4.756476E-01
  4.714776E-01
  4.753167E-01
  4.711198E-01
  4.754947E-01
  4.724995E-01
  4.779845E-01
  4.747950E-01
  4.667789E-01
  4.651320E-01
  4.703088E-01
  4.648444E-01
  4.668339E-01
  4.606904E-01
  4.639650E-01
  4.593663E-01
  4.630859E-01
  4.579569E-01
  4.614444E-01
  4.576876E-01
  4.641753E-01
  4.633994E-01
  4.704845E-01
  4.663454E-01
  4.672802E-01
  4.578179E-01
  4.579082E-01
  4.532098E-01
  4.608599E-01
  4.619983E-01
  4.707027E-01
  4.684366E-01
  4.728804E-01
  4.687326E-01
  4.739788E-01
  4.709151E-01
  4.752638E-01
  4.695467E-01
  4.719333E-01
  4.670593E-01
  4.725595E-01
  4.703172E-01
  4.754360E-01
  4.694718E-01
  4.696772E-01
  4.606985E-01
  4.616118E-01
  4.570837E-01
  4.643339E-01
  4.654913E-01
  4.754596E-01
  4.747245E-01
  4.786502E-01
  4.701573E-01
  4.682987E-01
  4.587790E-01
  4.605231E-01