# vtk DataFile Version 2.0
title
ASCII
DATASET STRUCTURED_GRID
DIMENSIONS   64   64    1
POINTS   4096  float
  0.000000E+00  0.000000E+00  0.000000E+00
  0.000000E+00  3.906250E-01  0.000000E+00
  0.000000E+00  7.812500E-01  0.000000E+00
  0.000000E+00  1.171875E+00  0.000000E+00
  0.000000E+00  1.562500E+00  0.000000E+00
  0.000000E+00  1.953125E+00  0.000000E+00
  0.000000E+00  2.343750E+00  0.000000E+00
  0.000000E+00  2.734375E+00  0.000000E+00
  0.000000E+00  3.125000E+00  0.000000E+00
  0.000000E+00  3.515625E+00  0.000000E+00
  0.000000E+00  3.906250E+00  0.000000E+00
  0.000000E+00  4.296875E+00  0.000000E+00
  0.000000E+00  4.687500E+00  0.000000E+00
  0.000000E+00  5.078125E+00  0.000000E+00
  0.000000E+00  5.468750E+00  0.000000E+00
  0.000000E+00  5.859375E+00  0.000000E+00
  0.000000E+00  6.250000E+00  0.000000E+00
  0.000000E+00  6.640625E+00  0.000000E+00
  0.000000E+00  7.031250E+00  0.000000E+00
  0.000000E+00  7.421875E+00  0.000000E+00
  0.000000E+00  7.812500E+00  0.000000E+00
  0.000000E+00  8.203125E+00  0.000000E+00
  0.000000E+00  8.593750E+00  0.000000E+00
  0.000000E+00  8.984375E+00  0.000000E+00
  0.000000E+00  9.375000E+00  0.000000E+00
  0.000000E+00  9.765625E+00  0.000000E+00
  0.000000E+00  1.015625E+01  0.000000E+00
  0.000000E+00  1.054688E+01  0.000000E+00
  0.000000E+00  1.093750E+01  0.000000E+00
  0.000000E+00  1.132812E+01  0.000000E+00
  0.000000E+00  1.171875E+01  0.000000E+00
  0.000000E+00  1.210938E+01  0.000000E+00
  0.000000E+00  1.250000E+01  0.000000E+00
  0.000000E+00  1.289062E+01  0.000000E+00
  0.000000E+00  1.328125E+01  0.000000E+00
  0.000000E+00  1.367188E+01  0.000000E+00
  0.000000E+00  1.406250E+01  0.000000E+00
  0.000000E+00  1.445312E+01  0.000000E+00
  0.000000E+00  1.484375E+01  0.000000E+00
  0.000000E+00  1.523438E+01  0.000000E+00
  0.000000E+00  1.562500E+01  0.000000E+00
  0.000000E+00  1.601562E+01  0.000000E+00
  0.000000E+00  1.640625E+01  0.000000E+00
  0.000000E+00  1.679688E+01  0.000000E+00
  0.000000E+00  1.718750E+01  0.000000E+00
  0.000000E+00  1.757812E+01  0.000000E+00
  0.000000E+00  1.796875E+01  0.000000E+00
  0.000000E+00  1.835938E+01  0.000000E+00
  0.000000E+00  1.875000E+01  0.000000E+00
  0.000000E+00  1.914062E+01  0.000000E+00
  0.000000E+00  1.953125E+01  0.000000E+00
  0.000000E+00  1.992188E+01  0.000000E+00
  0.000000E+00  2.031250E+01  0.000000E+00
  0.000000E+00  2.070312E+01  0.000000E+00
  0.000000E+00  2.109375E+01  0.000000E+00
  0.000000E+00  2.148438E+01  0.000000E+00
  0.000000E+00  2.187500E+01  0.000000E+00
  0.000000E+00  2.226562E+01  0.000000E+00
  0.000000E+00  2.265625E+01  0.000000E+00
  0.000000E+00  2.304688E+01  0.000000E+00
  0.000000E+00  2.343750E+01  0.000000E+00
  0.000000E+00  2.382812E+01  0.000000E+00
  0.000000E+00  2.421875E+01  0.000000E+00
  0.000000E+00  2.460938E+01  0.000000E+00
  3.906250E-01  0.000000E+00  0.000000E+00
  3.906250E-01  3.906250E-01  0.000000E+00
  3.906250E-01  7.812500E-01  0.000000E+00
  3.906250E-01  1.171875E+00  0.000000E+00
  3.906250E-01  1.562500E+00  0.000000E+00
  3.906250E-01  1.953125E+00  0.000000E+00
  3.906250E-01  2.343750E+00  0.000000E+00
  3.906250E-01  2.734375E+00  0.000000E+00
  3.906250E-01  3.125000E+00  0.000000E+00
  3.906250E-01  3.515625E+00  0.000000E+00
  3.906250E-01  3.906250E+00  0.000000E+00
  3.906250E-01  4.296875E+00  0.000000E+00
  3.906250E-01  4.687500E+00  0.000000E+00
  3.906250E-01  5.078125E+00  0.000000E+00
  3.906250E-01  5.468750E+00  0.000000E+00
  3.906250E-01  5.859375E+00  0.000000E+00
  3.906250E-01  6.250000E+00  0.000000E+00
  3.906250E-01  6.640625E+00  0.000000E+00
  3.906250E-01  7.031250E+00  0.000000E+00
  3.906250E-01  7.421875E+00  0.000000E+00
  3.906250E-01  7.812500E+00  0.000000E+00
  3.906250E-01  8.203125E+00  0.000000E+00
  3.906250E-01  8.593750E+00  0.000000E+00
  3.906250E-01  8.984375E+00  0.000000E+00
  3.906250E-01  9.375000E+00  0.000000E+00
  3.906250E-01  9.765625E+00  0.000000E+00
  3.906250E-01  1.015625E+01  0.000000E+00
  3.906250E-01  1.054688E+01  0.000000E+00
  3.906250E-01  1.093750E+01  0.000000E+00
  3.906250E-01  1.132812E+01  0.000000E+00
  3.906250E-01  1.171875E+01  0.000000E+00
  3.906250E-01  1.210938E+01  0.000000E+00
  3.906250E-01  1.250000E+01  0.000000E+00
  3.906250E-01  1.289062E+01  0.000000E+00
  3.906250E-01  1.328125E+01  0.000000E+00
  3.906250E-01  1.367188E+01  0.000000E+00
  3.906250E-01  1.406250E+01  0.000000E+00
  3.906250E-01  1.445312E+01  0.000000E+00
  3.906250E-01  1.484375E+01  0.000000E+00
  3.906250E-01  1.523438E+01  0.000000E+00
  3.906250E-01  1.562500E+01  0.000000E+00
  3.906250E-01  1.601562E+01  0.000000E+00
  3.906250E-01  1.640625E+01  0.000000E+00
  3.906250E-01  1.679688E+01  0.000000E+00
  3.906250E-01  1.718750E+01  0.000000E+00
  3.906250E-01  1.757812E+01  0.000000E+00
  3.906250E-01  1.796875E+01  0.000000E+00
  3.906250E-01  1.835938E+01  0.000000E+00
  3.906250E-01  1.875000E+01  0.000000E+00
  3.906250E-01  1.914062E+01  0.000000E+00
  3.906250E-01  1.953125E+01  0.000000E+00
  3.906250E-01  1.992188E+01  0.000000E+00
  3.906250E-01  2.031250E+01  0.000000E+00
  3.906250E-01  2.070312E+01  0.000000E+00
  3.906250E-01  2.109375E+01  0.000000E+00
  3.906250E-01  2.148438E+01  0.000000E+00
  3.906250E-01  2.187500E+01  0.000000E+00
  3.906250E-01  2.226562E+01  0.000000E+00
  3.906250E-01  2.265625E+01  0.000000E+00
  3.906250E-01  2.304688E+01  0.000000E+00
  3.906250E-01  2.343750E+01  0.000000E+00
  3.906250E-01  2.382812E+01  0.000000E+00
  3.906250E-01  2.421875E+01  0.000000E+00
  3.906250E-01  2.460938E+01  0.000000E+00
  7.812500E-01  0.000000E+00  0.000000E+00
  7.812500E-01  3.906250E-01  0.000000E+00
  7.812500E-01  7.812500E-01  0.000000E+00
  7.812500E-01  1.171875E+00  0.000000E+00
  7.812500E-01  1.562500E+00  0.000000E+00
  7.812500E-01  1.953125E+00  0.000000E+00
  7.812500E-01  2.343750E+00  0.000000E+00
  7.812500E-01  2.734375E+00  0.000000E+00
  7.812500E-01  3.125000E+00  0.000000E+00
  7.812500E-01  3.515625E+00  0.000000E+00
  7.812500E-01  3.906250E+00  0.000000E+00
  7.812500E-01  4.296875E+00  0.000000E+00
  7.812500E-01  4.687500E+00  0.000000E+00
  7.812500E-01  5.078125E+00  0.000000E+00
  7.812500E-01  5.468750E+00  0.000000E+00
  7.812500E-01  5.859375E+00  0.000000E+00
  7.812500E-01  6.250000E+00  0.000000E+00
  7.812500E-01  6.640625E+00  0.000000E+00
  7.812500E-01  7.031250E+00  0.000000E+00
  7.812500E-01  7.421875E+00  0.000000E+00
  7.812500E-01  7.812500E+00  0.000000E+00
  7.812500E-01  8.203125E+00  0.000000E+00
  7.812500E-01  8.593750E+00  0.000000E+00
  7.812500E-01  8.984375E+00  0.000000E+00
  7.812500E-01  9.375000E+00  0.000000E+00
  7.812500E-01  9.765625E+00  0.000000E+00
  7.812500E-01  1.015625E+01  0.000000E+00
  7.812500E-01  1.054688E+01  0.000000E+00
  7.812500E-01  1.093750E+01  0.000000E+00
  7.812500E-01  1.132812E+01  0.000000E+00
  7.812500E-01  1.171875E+01  0.000000E+00
  7.812500E-01  1.210938E+01  0.000000E+00
  7.812500E-01  1.250000E+01  0.000000E+00
  7.812500E-01  1.289062E+01  0.000000E+00
  7.812500E-01  1.328125E+01  0.000000E+00
  7.812500E-01  1.367188E+01  0.000000E+00
  7.812500E-01  1.406250E+01  0.000000E+00
  7.812500E-01  1.445312E+01  0.000000E+00
  7.812500E-01  1.484375E+01  0.000000E+00
  7.812500E-01  1.523438E+01  0.000000E+00
  7.812500E-01  1.562500E+01  0.000000E+00
  7.812500E-01  1.601562E+01  0.000000E+00
  7.812500E-01  1.640625E+01  0.000000E+00
  7.812500E-01  1.679688E+01  0.000000E+00
  7.812500E-01  1.718750E+01  0.000000E+00
  7.812500E-01  1.757812E+01  0.000000E+00
  7.812500E-01  1.796875E+01  0.000000E+00
  7.812500E-01  1.835938E+01  0.000000E+00
  7.812500E-01  1.875000E+01  0.000000E+00
  7.812500E-01  1.914062E+01  0.000000E+00
  7.812500E-01  1.953125E+01  0.000000E+00
  7.812500E-01  1.992188E+01  0.000000E+00
  7.812500E-01  2.031250E+01  0.000000E+00
  7.812500E-01  2.070312E+01  0.000000E+00
  7.812500E-01  2.109375E+01  0.000000E+00
  7.812500E-01  2.148438E+01  0.000000E+00
  7.812500E-01  2.187500E+01  0.000000E+00
  7.812500E-01  2.226562E+01  0.000000E+00
  7.812500E-01  2.265625E+01  0.000000E+00
  7.812500E-01  2.304688E+01  0.000000E+00
  7.812500E-01  2.343750E+01  0.000000E+00
  7.812500E-01  2.382812E+01  0.000000E+00
  7.812500E-01  2.421875E+01  0.000000E+00
  7.812500E-01  2.460938E+01  0.000000E+00
  1.171875E+00  0.000000E+00  0.000000E+00
  1.171875E+00  3.906250E-01  0.000000E+00
  1.171875E+00  7.812500E-01  0.000000E+00
  1.171875E+00  1.171875E+00  0.000000E+00
  1.171875E+00  1.562500E+00  0.000000E+00
  1.171875E+00  1.953125E+00  0.000000E+00
  1.171875E+00  2.343750E+00  0.000000E+00
  1.171875E+00  2.734375E+00  0.000000E+00
  1.171875E+00  3.125000E+00  0.000000E+00
  1.171875E+00  3.515625E+00  0.000000E+00
  1.171875E+00  3.906250E+00  0.000000E+00
  1.171875E+00  4.296875E+00  0.000000E+00
  1.171875E+00  4.687500E+00  0.000000E+00
  1.171875E+00  5.078125E+00  0.000000E+00
  1.171875E+00  5.468750E+00  0.000000E+00
  1.171875E+00  5.859375E+00  0.000000E+00
  1.171875E+00  6.250000E+00  0.000000E+00
  1.171875E+00  6.640625E+00  0.000000E+00
  1.171875E+00  7.031250E+00  0.000000E+00
  1.171875E+00  7.421875E+00  0.000000E+00
  1.171875E+00  7.812500E+00  0.000000E+00
  1.171875E+00  8.203125E+00  0.000000E+00
  1.171875E+00  8.593750E+00  0.000000E+00
  1.171875E+00  8.984375E+00  0.000000E+00
  1.171875E+00  9.375000E+00  0.000000E+00
  1.171875E+00  9.765625E+00  0.000000E+00
  1.171875E+00  1.015625E+01  0.000000E+00
  1.171875E+00  1.054688E+01  0.000000E+00
  1.171875E+00  1.093750E+01  0.000000E+00
  1.171875E+00  1.132812E+01  0.000000E+00
  1.171875E+00  1.171875E+01  0.000000E+00
  1.171875E+00  1.210938E+01  0.000000E+00
  1.171875E+00  1.250000E+01  0.000000E+00
  1.171875E+00  1.289062E+01  0.000000E+00
  1.171875E+00  1.328125E+01  0.000000E+00
  1.171875E+00  1.367188E+01  0.000000E+00
  1.171875E+00  1.406250E+01  0.000000E+00
  1.171875E+00  1.445312E+01  0.000000E+00
[...]
POINT_DATA   4096
SCALARS CON  float  1
LOOKUP_TABLE default
  4.703327E-01
  4.687382E-01
  4.743345E-01
  4.736162E-01
  4.738134E-01
  4.667937E-01
  4.670617E-01
  4.667554E-01
  4.729824E-01
  4.716320E-01
  4.717843E-01
  4.663788E-01
  4.679347E-01
  4.660572E-01
  4.687160E-01
  4.659707E-01
  4.694666E-01
  4.696213E-01
  4.740222E-01
  4.706338E-01
  4.701513E-01
  4.648829E-01
  4.658303E-01
  4.627590E-01
  4.647843E-01
  4.615509E-01
  4.634213E-01
  4.622866E-01
  4.690715E-01
  4.715371E-01
  4.750377E-01
  4.683785E-01
  4.661012E-01
  4.635095E-01
  4.700433E-01
  4.707525E-01
  4.722454E-01
  4.660708E-01
  4.653929E-01
  4.619034E-01
  4.649776E-01
  4.632128E-01
  4.653758E-01
  4.621192E-01
  4.644773E-01
  4.623897E-01
  4.652893E-01
  4.648827E-01
  4.722204E-01
  4.740992E-01
  4.755951E-01
  4.673098E-01
  4.647002E-01
  4.614254E-01
  4.668140E-01
  4.696072E-01
  4.780816E-01
  4.790511E-01
  4.801477E-01
  4.735105E-01
  4.734318E-01
  4.710653E-01
  4.736886E-01
  4.695606E-01
  4.700019E-01
  4.694881E-01
  4.774343E-01
  4.798119E-01
  4.795491E-01
  4.694157E-01
  4.653068E-01
  4.634212E-01
  4.696498E-01
  4.696473E-01
  4.704061E-01
  4.668484E-01
  4.700107E-01
  4.691667E-01
  4.698869E-01
  4.648302E-01
  4.666773E-01
  4.683939E-01
  4.752867E-01
  4.743245E-01
  4.729998E-01
  4.655244E-01
  4.641764E-01
  4.619680E-01
  4.660330E-01
  4.652505E-01
  4.671034E-01
  4.646372E-01
  4.684979E-01
  4.695833E-01
  4.732448E-01
  4.690547E-01
  4.678605E-01
  4.646029E-01
  4.681122E-01
  4.671313E-01
  4.684378E-01
  4.645721E-01
  4.660654E-01
  4.645778E-01
  4.668807E-01
  4.628836E-01
  4.619366E-01
  4.579846E-01
  4.605860E-01
  4.598628E-01
  4.635490E-01
  4.651317E-01
  4.742299E-01
  4.779987E-01
  4.790666E-01
  4.694567E-01
  4.651125E-01
  4.629140E-01
  4.703510E-01
  4.747907E-01
  4.814499E-01
  4.796127E-01
  4.777533E-01
  4.703140E-01
  4.700905E-01
  4.692826E-01
  4.730122E-01
  4.697871E-01
  4.632607E-01
  4.685987E-01
  4.781363E-01
  4.813568E-01
  4.789709E-01
  4.700317E-01
  4.659823E-01
  4.652387E-01
  4.693293E-01
  4.699300E-01
  4.708112E-01
  4.693566E-01
  4.710385E-01
  4.703978E-01
  4.706655E-01
  4.681276E-01
  4.692564E-01
  4.702746E-01
  4.737907E-01
  4.730362E-01
  4.720460E-01
  4.677519E-01
  4.662722E-01
  4.641973E-01
  4.658018E-01
  4.652918E-01
  4.659081E-01
  4.638702E-01
  4.651836E-01
  4.652980E-01
  4.665724E-01
  4.636454E-01
  4.631880E-01
  4.636108E-01
  4.687941E-01
  4.705865E-01
  4.708973E-01
  4.666694E-01
  4.654361E-01
  4.639802E-01
  4.653169E-01
  4.629170E-01
  4.607892E-01
  4.565287E-01
  4.570481E-01
  4.583967E-01
  4.637738E-01
  4.683041E-01
  4.759744E-01
  4.790916E-01
  4.781958E-01
  4.701523E-01
  4.656704E-01
  4.643951E-01
  4.696062E-01
  4.740217E-01
  4.799529E-01
  4.804182E-01
  4.778276E-01
  4.693389E-01
  4.639976E-01
  4.599933E-01
  4.605474E-01
  4.597379E-01
  4.625379E-01
  4.694496E-01
  4.770477E-01
  4.818318E-01
  4.766842E-01
  4.682813E-01
  4.612857E-01
  4.621115E-01
  4.650737E-01
  4.688366E-01
  4.695116E-01
  4.717644E-01
  4.730353E-01
  4.742390E-01
  4.711319E-01
  4.686901E-01
  4.672211E-01
  4.703042E-01
  4.724235E-01
  4.738087E-01
  4.713063E-01
  4.697522E-01
  4.679789E-01
  4.692901E-01
  4.697602E-01
  4.708345E-01
  4.685500E-01
  4.662934E-01
  4.630456E-01
  4.636258E-01
  4.649914E-01
  4.679703E-01
  4.678802E-01
  4.680037E-01
  4.666034E-01
  4.667722E-01
  4.651093E-01
  4.653079E-01
  4.659215E-01
  4.692903E-01
  4.692126E-01
  4.666766E-01
  4.613390E-01
  4.604935E-01
  4.620327E-01
  4.657378E-01
  4.663009E-01
  4.681914E-01
  4.706399E-01
  4.747000E-01
  4.731011E-01
  4.686696E-01
  4.639217E-01
  4.662960E-01
  4.715583E-01
  4.781819E-01
  4.801248E-01
  4.793950E-01
  4.733830E-01
  4.673188E-01
  4.616607E-01
  4.607744E-01
  4.601303E-01
  4.611779E-01
  4.600894E-01
  4.704687E-01
  4.744934E-01
  4.782592E-01
  4.699592E-01
  4.656140E-01
  4.592502E-01
  4.625528E-01
  4.622525E-01
  4.678321E-01
  4.679974E-01
  4.731837E-01
  4.711825E-01
  4.728867E-01
  4.682683E-01
  4.698995E-01
  4.674311E-01
  4.713062E-01
  4.691355E-01
  4.716503E-01
  4.687218E-01
  4.719368E-01
  4.691157E-01
  4.704216E-01
  4.656785E-01
  4.673647E-01
  4.641374E-01
  4.656585E-01
  4.609269E-01
  4.629615E-01
  4.619572E-01
  4.673074E-01
  4.655223E-01
  4.678641E-01
  4.652807E-01
  4.689915E-01
  4.661096E-01
  4.674962E-01
  4.642405E-01
  4.681863E-01
  4.659255E-01
  4.666031E-01
  4.610818E-01
  4.641038E-01
  4.653099E-01
  4.720909E-01
  4.696126E-01
  4.697605E-01
  4.652285E-01
  4.684081E-01
  4.658292E-01
  4.669591E-01
  4.627123E-01
  4.664277E-01
  4.665579E-01
  4.724475E-01
  4.721992E-01
  4.760771E-01
  4.715878E-01
  4.699154E-01
  4.619551E-01
  4.605722E-01
  4.554655E-01
  4.585415E-01
  4.653747E-01
  4.720462E-01
  4.722466E-01
  4.755425E-01
  4.674721E-01
  4.641857E-01
  4.565855E-01
  4.592103E-01
  4.579076E-01
  4.643338E-01
  4.646834E-01
  4.712658E-01
  4.695109E-01
  4.717001E-01
  4.655693E-01
  4.668219E-01
  4.643345E-01
  4.707425E-01
  4.703478E-01
  4.744376E-01
  4.702299E-01
  4.722580E-01
  4.673730E-01
  4.681606E-01
  4.623949E-01
  4.651561E-01
  4.632351E-01
  4.671059E-01
  4.624761E-01
  4.654117E-01
  4.657538E-01
  4.741704E-01
  4.718075E-01
  4.706837E-01
  4.624328E-01
  4.643076E-01
  4.623403E-01
  4.673787E-01
  4.662459E-01
  4.718103E-01
  4.680573E-01
  4.671082E-01
  4.604675E-01
  4.667264E-01
  4.714363E-01
  4.801255E-01
  4.742768E-01
  4.701238E-01
  4.615059E-01
  4.645270E-01
  4.629563E-01
  4.662302E-01
  4.618983E-01
  4.658487E-01
  4.650317E-01
  4.701972E-01
  4.669808E-01
  4.695151E-01
  4.658730E-01
  4.694916E-01
  4.666445E-01
  4.696868E-01
  4.652776E-01
  4.676459E-01
  4.655038E-01
  4.701153E-01
  4.695063E-01
  4.707464E-01
  4.656835E-01
  4.652425E-01
  4.617060E-01
  4.630425E-01
  4.604090E-01
  4.638272E-01
  4.647496E-01
  4.694622E-01
  4.670130E-01
  4.671021E-01
  4.636994E-01
  4.670374E-01
  4.678685E-01
  4.733470E-01
  4.730325E-01
  4.751158E-01
  4.717566E-01
  4.724801E-01
  4.673304E-01
  4.641299E-01
  4.565656E-01
  4.574405E-01
  4.587125E-01
  4.650401E-01
  4.642536E-01
  4.667289E-01
  4.671321E-01
  4.730268E-01
  4.710312E-01
  4.694386E-01
  4.645001E-01
  4.681186E-01
  4.688243E-01
  4.717642E-01
  4.686170E-01
  4.699468E-01
  4.662597E-01
  4.653488E-01
  4.609944E-01
  4.657936E-01
  4.708388E-01
  4.793064E-01
  4.768171E-01
  4.728361E-01
  4.644570E-01
  4.647383E-01
  4.637651E-01
  4.666985E-01
  4.636535E-01
  4.646040E-01
  4.616078E-01
  4.632858E-01
  4.612499E-01
  4.648945E-01
  4.654511E-01
  4.705614E-01
  4.697966E-01
  4.709277E-01
  4.661996E-01
  4.668117E-01
  4.672569E-01
  4.670260E-01
  4.671027E-01
  4.695660E-01
  4.690436E-01
  4.687744E-01
  4.662106E-01
  4.655982E-01
  4.639366E-01
  4.653822E-01
  4.664095E-01
  4.690930E-01
  4.683364E-01
  4.677407E-01
  4.655573E-01
  4.671420E-01
  4.696033E-01
  4.752472E-01
  4.778507E-01
  4.786596E-01
  4.745641E-01
  4.715290E-01
  4.671724E-01
  4.642760E-01
  4.598521E-01
  4.600654E-01
  4.624131E-01
  4.671570E-01
  4.675502E-01
  4.688891E-01
  4.715132E-01
  4.775760E-01
  4.775820E-01
  4.733203E-01
  4.669594E-01
  4.673580E-01
  4.695764E-01
  4.727344E-01
  4.722901E-01
  4.729410E-01
  4.704137E-01
  4.674105E-01
  4.634004E-01
  4.660019E-01
  4.711328E-01
  4.767928E-01
  4.750887E-01
  4.710401E-01
  4.662264E-01
  4.669042E-01
  4.674416E-01
  4.679988E-01
  4.652193E-01
  4.653744E-01
  4.657664E-01
  4.675894E-01
  4.654405E-01
  4.641154E-01
  4.630844E-01
  4.669520E-01
  4.702546E-01
  4.736243E-01
  4.723467E-01
  4.707904E-01
  4.615263E-01
  4.629887E-01
  4.648577E-01
  4.683066E-01
  4.698396E-01
  4.720442E-01
  4.724108E-01
  4.725719E-01
  4.703144E-01
  4.701151E-01
  4.703083E-01
  4.713876E-01
  4.692074E-01
  4.677508E-01
  4.671628E-01
  4.702776E-01
  4.730340E-01
  4.764197E-01
  4.768615E-01
  4.760912E-01
  4.724114E-01
  4.702604E-01
  4.676147E-01
  4.656643E-01
  4.621151E-01
  4.619726E-01
  4.640330E-01
  4.681479E-01
  4.685992E-01
  4.686026E-01
  4.689961E-01
  4.724974E-01
  4.732132E-01
  4.723954E-01
  4.709161E-01
  4.736590E-01
  4.754864E-01
  4.751917E-01
  4.708975E-01
  4.684333E-01
  4.666783E-01
  4.669047E-01
  4.657232E-01
  4.661934E-01
  4.665629E-01
  4.686258E-01
  4.684252E-01
  4.682483E-01
  4.672863E-01
  4.691305E-01
  4.699283E-01
  4.700796E-01
  4.674485E-01
  4.668948E-01
  4.672198E-01
  4.695438E-01
  4.691716E-01
  4.681105E-01
  4.656132E-01
  4.658151E-01
  4.658223E-01
  4.664010E-01
  4.643819E-01
  4.631167E-01
  4.616538E-01
  4.617068E-01
  4.641157E-01
  4.692359E-01
  4.714024E-01
  4.724479E-01
  4.713838E-01
  4.717011E-01
  4.708370E-01
  4.714378E-01
  4.712899E-01
  4.723612E-01
  4.712116E-01
  4.703234E-01
  4.681597E-01
  4.682107E-01
  4.686317E-01
  4.719335E-01
  4.740121E-01
  4.746682E-01
  4.707470E-01
  4.675734E-01
  4.655284E-01
  4.668458E-01
  4.673867E-01
  4.695144E-01
  4.710409E-01
  4.728624E-01
  4.707482E-01
  4.688726E-01
  4.683327E-01
  4.718925E-01
  4.732240E-01
  4.724646E-01
  4.696250E-01
  4.704316E-01
  4.714345E-01
  4.719858E-01
  4.691219E-01
  4.675229E-01
  4.659859E-01
  4.667006E-01
  4.668305E-01
  4.683905E-01
  4.676131E-01
  4.662311E-01
  4.630527E-01
  4.631378E-01
  4.653513E-01
  4.705377E-01
  4.724978E-01
  4.716997E-01
  4.680134E-01
  4.684144E-01
  4.717573E-01
  4.768265E-01
  4.762233E-01
  4.718446E-01
  4.653686E-01
  4.635021E-01
  4.640905E-01
  4.668734E-01
  4.666209E-01
  4.651236E-01
  4.595771E-01
  4.612414E-01
  4.638308E-01
  4.672873E-01
  4.687688E-01
  4.705087E-01
  4.712890E-01
  4.720857E-01
  4.709228E-01
  4.709363E-01
  4.712449E-01
  4.720938E-01
  4.702253E-01
  4.682689E-01
  4.664260E-01
  4.668171E-01
  4.671385E-01
  4.690411E-01
  4.704308E-01
  4.713849E-01
  4.691846E-01
  4.668895E-01
  4.646835E-01
  4.647439E-01
  4.652412E-01
  4.681988E-01
  4.713303E-01
  4.738666E-01
  4.718622E-01
  4.680640E-01
  4.641990E-01
  4.639605E-01
  4.646028E-01
  4.664403E-01
  4.681101E-01
  4.714963E-01
  4.727935E-01
  4.713692E-01
  4.660312E-01
  4.617077E-01
  4.597790E-01
  4.626143E-01
  4.662164E-01
  4.688108E-01
  4.671337E-01
  4.645745E-01
  4.623843E-01
  4.640538E-01
  4.675026E-01
  4.720910E-01
  4.731945E-01
  4.716209E-01
  4.678582E-01
  4.670133E-01
  4.688576E-01
  4.732953E-01
  4.749986E-01
  4.737757E-01
  4.695796E-01
  4.671581E-01
  4.656424E-01
  4.652111E-01
  4.629068E-01
  4.610568E-01
  4.634839E-01
  4.631493E-01
  4.644184E-01
  4.677255E-01
  4.689438E-01
  4.694499E-01
  4.680797E-01
  4.676868E-01
  4.666940E-01
  4.675523E-01
  4.684015E-01
  4.703393E-01
  4.698776E-01
  4.685084E-01
  4.653407E-01
  4.642181E-01
  4.645603E-01
  4.685572E-01
  4.724254E-01
  4.749201E-01
  4.721831E-01
  4.680099E-01
  4.638682E-01
  4.635924E-01
  4.650299E-01
  4.694363E-01
  4.733620E-01
  4.761151E-01
  4.737754E-01
  4.699221E-01
  4.662950E-01
  4.665407E-01
  4.667147E-01
  4.666210E-01
  4.649893E-01
  4.658486E-01
  4.670394E-01
  4.683372E-01
  4.664265E-01
  4.641983E-01
  4.616240E-01
  4.624607E-01
  4.650405E-01
  4.692900E-01
  4.701752E-01
  4.689500E-01
  4.661351E-01
  4.668402E-01
  4.694608E-01
  4.731398E-01
  4.725088E-01
  4.692845E-01
  4.647506E-01
  4.646018E-01
  4.674781E-01
  4.724355E-01
  4.737560E-01
  4.726250E-01
  4.696972E-01
  4.697696E-01
  4.706017E-01
  4.717806E-01
  4.697038E-01
  4.669615E-01
  4.618423E-01
  4.646959E-01
  4.649498E-01
  4.674898E-01
  4.675465E-01
  4.701803E-01
  4.691576E-01
  4.688836E-01
  4.653623E-01
  4.661564E-01
  4.666218E-01
  4.695014E-01
  4.673342E-01
  4.661960E-01
  4.636845E-01
  4.661999E-01
  4.676181E-01
  4.718112E-01
  4.728710E-01
  4.751760E-01
  4.727091E-01
  4.707883E-01
  4.653697E-01
  4.632209E-01
  4.608164E-01
  4.642276E-01
  4.673645E-01
  4.725271E-01
  4.718250E-01
  4.704545E-01
  4.658806E-01
  4.656261E-01
  4.644311E-01
  4.662774E-01
  4.658814E-01
  4.687261E-01
  4.687091E-01
  4.694808E-01
  4.656452E-01
  4.638660E-01
  4.610246E-01
  4.632704E-01
  4.644082E-01
  4.675623E-01
  4.668566E-01
  4.685219E-01
  4.683991E-01
  4.714452E-01
  4.713776E-01
  4.721346E-01
  4.681616E-01
  4.659150E-01
  4.621088E-01
  4.627183E-01
  4.623873E-01
  4.659274E-01
  4.676282E-01
  4.717168E-01
  4.723182E-01
  4.742654E-01
  4.717035E-01
  4.695429E-01
  4.640957E-01
  4.629586E-01
  4.651412E-01
  4.669355E-01
  4.660454E-01
  4.690541E-01
  4.690924E-01
  4.708962E-01
  4.676791E-01
  4.665734E-01
  4.630562E-01
  4.644072E-01
  4.643446E-01
  4.676507E-01
  4.664865E-01
  4.667640E-01
  4.639365E-01
  4.658911E-01
  4.665177E-01
  4.709063E-01
  4.719907E-01
  4.751473E-01
  4.731244E-01
  4.719414E-01
  4.667657E-01
  4.655038E-01
  4.627804E-01
  4.648331E-01
  4.652837E-01
  4.692730E-01
  4.690479E-01
  4.704592E-01
  4.688633E-01
  4.714649E-01
  4.705591E-01
  4.703949E-01
  4.656797E-01
  4.653027E-01
  4.640616E-01
  4.668964E-01
  4.665785E-01
  4.690462E-01
  4.677009E-01
  4.683999E-01
  4.657132E-01
  4.669915E-01
  4.663151E-01
  4.690595E-01
  4.682260E-01
  4.698477E-01
  4.678185E-01
  4.679442E-01
  4.638700E-01
  4.629898E-01
  4.610205E-01
  4.644898E-01
  4.656922E-01
  4.690977E-01
  4.682488E-01
  4.702157E-01
  4.695367E-01
  4.719212E-01
  4.699697E-01
  4.696344E-01
  4.660503E-01
  4.666663E-01
  4.656321E-01
  4.676879E-01
  4.667049E-01
  4.667591E-01
  4.673432E-01
  4.697473E-01
  4.699792E-01
  4.690685E-01
  4.660859E-01
  4.651509E-01
  4.649261E-01
  4.659124E-01
  4.646636E-01
  4.642630E-01
  4.648550E-01
  4.682667E-01
  4.697247E-01
  4.697472E-01
  4.682240E-01
  4.696730E-01
  4.715035E-01
  4.728684E-01
  4.701776E-01
  4.666519E-01
  4.623090E-01
  4.604629E-01
  4.598934E-01
  4.626789E-01
  4.651167E-01
  4.669454E-01
  4.660341E-01
  4.662868E-01
  4.664887E-01
  4.677870E-01
  4.676935E-01
  4.684823E-01
  4.677325E-01
  4.670701E-01
  4.655287E-01
  4.665963E-01
  4.679220E-01
  4.694445E-01
  4.676418E-01
  4.655834E-01
  4.638729E-01
  4.655835E-01
  4.668565E-01
  4.674292E-01
  4.650733E-01
  4.631577E-01
  4.611032E-01
  4.621099E-01
  4.642941E-01
  4.678749E-01
  4.685857E-01
  4.683962E-01
  4.672630E-01
  4.683886E-01
  4.686702E-01
  4.682527E-01
  4.646495E-01
  4.617266E-01
  4.601739E-01
  4.628632E-01
  4.736133E-01
  4.702714E-01
  4.680305E-01
  4.657753E-01
  4.675942E-01
  4.675186E-01
  4.685610E-01
  4.670333E-01
  4.673866E-01
  4.654555E-01
  4.655493E-01
  4.641080E-01
  4.652492E-01
  4.649558E-01
  4.677418E-01
  4.690980E-01
  4.711813E-01
  4.691159E-01
  4.691901E-01
  4.696012E-01
  4.731511E-01
  4.725821E-01
  4.712466E-01
  4.670270E-01
  4.653112E-01
  4.619576E-01
  4.616904E-01
  4.616045E-01
  4.648229E-01
  4.649659E-01
  4.659476E-01
  4.656716E-01
  4.684769E-01
  4.683013E-01
  4.683586E-01
  4.658719E-01
  4.659173E-01
  4.645003E-01
  4.662962E-01
  4.676048E-01
  4.707474E-01
  4.694226E-01
  4.682828E-01
  4.660562E-01
  4.679635E-01
  4.679072E-01
  4.675864E-01
  4.634130E-01
  4.620189E-01
  4.606909E-01
  4.627535E-01
  4.636438E-01
  4.680298E-01
  4.713860E-01
  4.751132E-01
  4.728600E-01
  4.696553E-01
  4.643562E-01
  4.627249E-01
  4.604110E-01
  4.612404E-01
  4.621479E-01
  4.675376E-01
  4.711113E-01
  4.767360E-01
  4.730888E-01
  4.692829E-01
  4.644594E-01
  4.652789E-01
  4.656878E-01
  4.687801E-01
  4.684798E-01
  4.695789E-01
  4.675209E-01
  4.675812E-01
  4.646137E-01
  4.639671E-01
  4.627179E-01
  4.675844E-01
  4.718143E-01
  4.757439E-01
  4.723640E-01
  4.700842E-01
  4.683671E-01
  4.719640E-01
  4.718080E-01
  4.705178E-01
  4.648231E-01
  4.622488E-01
  4.587589E-01
  4.598153E-01
  4.609027E-01
  4.650235E-01
  4.638609E-01
  4.623993E-01
  4.597790E-01
  4.636555E-01
  4.673036E-01
  4.722890E-01
  4.719042E-01
  4.711791E-01
  4.664503E-01
  4.649484E-01
  4.632567E-01
  4.656311E-01
  4.653194E-01
  4.667807E-01
  4.662155E-01
  4.691791E-01
  4.690321E-01
  4.686082E-01
  4.636348E-01
  4.622648E-01
  4.614257E-01
  4.650469E-01
  4.666825E-01
  4.709023E-01
  4.719414E-01
  4.728999E-01
  4.682931E-01
  4.653617E-01
  4.614983E-01
  4.614525E-01
  4.589214E-01
  4.593357E-01
  4.601027E-01
  4.670701E-01
  4.724773E-01
  4.811702E-01
  4.758992E-01
  4.704372E-01
  4.668167E-01
  4.661819E-01
  4.650366E-01
  4.645351E-01
  4.644040E-01
  4.662386E-01
  4.670209E-01
  4.670432E-01
  4.650791E-01
  4.636599E-01
  4.627126E-01
  4.649660E-01
  4.684146E-01
  4.717836E-01
  4.715006E-01
  4.702723E-01
  4.691405E-01
  4.697867E-01
  4.688678E-01
  4.672247E-01
  4.647113E-01
  4.637551E-01
  4.626995E-01
  4.634039E-01
  4.649719E-01
  4.672874E-01
  4.664168E-01
  4.648348E-01
  4.649588E-01
  4.693569E-01
  4.729605E-01
  4.737128E-01
  4.705302E-01
  4.675427E-01
  4.651635E-01
  4.654148E-01
  4.659720E-01
  4.664776E-01
  4.650052E-01
  4.654124E-01
  4.683365E-01
  4.731178E-01
  4.733766E-01
  4.689310E-01
  4.623483E-01
  4.603793E-01
  4.624391E-01
  4.665542E-01
  4.683538E-01
  4.698601E-01
  4.708503E-01
  4.715999E-01
  4.687389E-01
  4.647244E-01
  4.610045E-01
  4.602939E-01
  4.603031E-01
  4.625254E-01
  4.669443E-01
  4.747011E-01
  4.803561E-01
  4.758499E-01
  4.738438E-01
  4.699294E-01
  4.665805E-01
  4.652621E-01
  4.648567E-01
  4.647471E-01
  4.644834E-01
  4.648551E-01
  4.656409E-01
  4.663078E-01
  4.651124E-01
  4.624164E-01
  4.602967E-01
  4.616047E-01
  4.653336E-01
  4.683316E-01
  4.677754E-01
  4.651728E-01
  4.633551E-01
  4.643052E-01
  4.663515E-01
  4.674553E-01
  4.663974E-01
  4.644395E-01
  4.627722E-01
  4.632652E-01
  4.658673E-01
  4.685262E-01
  4.678722E-01
  4.651977E-01
  4.646295E-01
  4.685069E-01
  4.732271E-01
  4.749021E-01
  4.725690E-01
  4.689652E-01
  4.659828E-01
  4.646304E-01
  4.640509E-01
  4.639172E-01
  4.639978E-01
  4.655138E-01
  4.683431E-01
  4.711121E-01
  4.707650E-01
  4.669778E-01
  4.621487E-01
  4.602212E-01
  4.616882E-01
  4.647296E-01
  4.668585E-01
  4.681020E-01
  4.681927E-01
  4.668956E-01
  4.643407E-01
  4.632932E-01
  4.649401E-01
  4.678310E-01
  4.686504E-01
  4.676112E-01
  4.672289E-01
  4.699320E-01
  4.738671E-01
  4.732052E-01
  4.695806E-01
  4.691483E-01
  4.666852E-01
  4.676964E-01
  4.647658E-01
  4.642516E-01
  4.610817E-01
  4.621974E-01
  4.611671E-01
  4.637068E-01
  4.631593E-01
  4.652375E-01
  4.634666E-01
  4.644358E-01
  4.624215E-01
  4.636774E-01
  4.615834E-01
  4.622625E-01
  4.602436E-01
  4.629171E-01
  4.644161E-01
  4.696171E-01
  4.701550E-01
  4.713350E-01
  4.681347E-01
  4.691683E-01
  4.689931E-01
  4.718500E-01
  4.695069E-01
  4.697753E-01
  4.695199E-01
  4.744304E-01
  4.738705E-01
  4.717757E-01
  4.647971E-01
  4.634678E-01
  4.626035E-01
  4.664858E-01
  4.666086E-01
  4.681115E-01
  4.655331E-01
  4.673165E-01
  4.681429E-01
  4.718291E-01
  4.688360E-01
  4.656323E-01
  4.596396E-01
  4.599995E-01
  4.600772E-01
  4.637413E-01
  4.635249E-01
  4.663414E-01
  4.666019E-01
  4.696369E-01
  4.683323E-01
  4.700248E-01
  4.701076E-01
  4.742944E-01
  4.740299E-01
  4.747526E-01
  4.718580E-01
  4.733134E-01
  4.722698E-01
  4.664389E-01
  4.648639E-01
  4.684627E-01
  4.649598E-01
  4.677917E-01
  4.650777E-01
  4.683756E-01
  4.638898E-01
  4.642995E-01
  4.594188E-01
  4.631678E-01
  4.623183E-01
  4.675662E-01
  4.660455E-01
  4.702043E-01
  4.668152E-01
  4.676336E-01
  4.609567E-01
  4.609470E-01
  4.571337E-01
  4.629989E-01
  4.652060E-01
  4.728186E-01
  4.705164E-01
  4.712909E-01
  4.659012E-01
  4.693795E-01
  4.687847E-01
  4.733807E-01
  4.685526E-01
  4.687167E-01
  4.651321E-01
  4.704453E-01
  4.687111E-01
  4.702606E-01
  4.645308E-01
  4.664646E-01
  4.634949E-01
  4.664339E-01
  4.627464E-01
  4.661024E-01
  4.646353E-01
  4.697363E-01
  4.675567E-01
  4.699154E-01
  4.648730E-01
  4.660633E-01
  4.619352E-01
  4.647009E-01