# vtk DataFile Version 2.0
title
ASCII
DATASET STRUCTURED_GRID
DIMENSIONS   64   64    1
POINTS   4096  float
  0.000000E+00  0.000000E+00  0.000000E+00
  0.000000E+00  3.906250E-01  0.000000E+00
  0.000000E+00  7.812500E-01  0.000000E+00
  0.000000E+00  1.171875E+00  0.000000E+00
  0.000000E+00  1.562500E+00  0.000000E+00
  0.000000E+00  1.953125E+00  0.000000E+00
  0.000000E+00  2.343750E+00  0.000000E+00
  0.000000E+00  2.734375E+00  0.000000E+00
  0.000000E+00  3.125000E+00  0.000000E+00
  0.000000E+00  3.515625E+00  0.000000E+00
  0.000000E+00  3.906250E+00  0.000000E+00
  0.000000E+00  4.296875E+00  0.000000E+00
  0.000000E+00  4.687500E+00  0.000000E+00
  0.000000E+00  5.078125E+00  0.000000E+00
  0.000000E+00  5.468750E+00  0.000000E+00
  0.000000E+00  5.859375E+00  0.000000E+00
  0.000000E+00  6.250000E+00  0.000000E+00
  0.000000E+00  6.640625E+00  0.000000E+00
  0.000000E+00  7.031250E+00  0.000000E+00
  0.000000E+00  7.421875E+00  0.000000E+00
  0.000000E+00  7.812500E+00  0.000000E+00
  0.000000E+00  8.203125E+00  0.000000E+00
  0.000000E+00  8.593750E+00  0.000000E+00
  0.000000E+00  8.984375E+00  0.000000E+00
  0.000000E+00  9.375000E+00  0.000000E+00
  0.000000E+00  9.765625E+00  0.000000E+00
  0.000000E+00  1.015625E+01  0.000000E+00
  0.000000E+00  1.054688E+01  0.000000E+00
  0.000000E+00  1.093750E+01  0.000000E+00
  0.000000E+00  1.132812E+01  0.000000E+00
  0.000000E+00  1.171875E+01  0.000000E+00
  0.000000E+00  1.210938E+01  0.000000E+00
  0.000000E+00  1.250000E+01  0.000000E+00
  0.000000E+00  1.289062E+01  0.000000E+00
  0.000000E+00  1.328125E+01  0.000000E+00
  0.000000E+00  1.367188E+01  0.000000E+00
  0.000000E+00  1.406250E+01  0.000000E+00
  0.000000E+00  1.445312E+01  0.000000E+00
  0.000000E+00  1.484375E+01  0.000000E+00
  0.000000E+00  1.523438E+01  0.000000E+00
  0.000000E+00  1.562500E+01  0.000000E+00
  0.000000E+00  1.601562E+01  0.000000E+00
  0.000000E+00  1.640625E+01  0.000000E+00
  0.000000E+00  1.679688E+01  0.000000E+00
  0.000000E+00  1.718750E+01  0.000000E+00
  0.000000E+00  1.757812E+01  0.000000E+00
  0.000000E+00  1.796875E+01  0.000000E+00
  0.000000E+00  1.835938E+01  0.000000E+00
  0.000000E+00  1.875000E+01  0.000000E+00
  0.000000E+00  1.914062E+01  0.000000E+00
  0.000000E+00  1.953125E+01  0.000000E+00
  0.000000E+00  1.992188E+01  0.000000E+00
  0.000000E+00  2.031250E+01  0.000000E+00
  0.000000E+00  2.070312E+01  0.000000E+00
  0.000000E+00  2.109375E+01  0.000000E+00
  0.000000E+00  2.148438E+01  0.000000E+00
  0.000000E+00  2.187500E+01  0.000000E+00
  0.000000E+00  2.226562E+01  0.000000E+00
  0.000000E+00  2.265625E+01  0.000000E+00
  0.000000E+00  2.304688E+01  0.000000E+00
  0.000000E+00  2.343750E+01  0.000000E+00
  0.000000E+00  2.382812E+01  0.000000E+00
  0.000000E+00  2.421875E+01  0.000000E+00
  0.000000E+00  2.460938E+01  0.000000E+00
  3.906250E-01  0.000000E+00  0.000000E+00
  3.906250E-01  3.906250E-01  0.000000E+00
  3.906250E-01  7.812500E-01  0.000000E+00
  3.906250E-01  1.171875E+00  0.000000E+00
  3.906250E-01  1.562500E+00  0.000000E+00
  3.906250E-01  1.953125E+00  0.000000E+00
  3.906250E-01  2.343750E+00  0.000000E+00
  3.906250E-01  2.734375E+00  0.000000E+00
  3.906250E-01  3.125000E+00  0.000000E+00
  3.906250E-01  3.515625E+00  0.000000E+00
  3.906250E-01  3.906250E+00  0.000000E+00
  3.906250E-01  4.296875E+00  0.000000E+00
  3.906250E-01  4.687500E+00  0.000000E+00
  3.906250E-01  5.078125E+00  0.000000E+00
  3.906250E-01  5.468750E+00  0.000000E+00
  3.906250E-01  5.859375E+00  0.000000E+00
  3.906250E-01  6.250000E+00  0.000000E+00
  3.906250E-01  6.640625E+00  0.000000E+00
  3.906250E-01  7.031250E+00  0.000000E+00
  3.906250E-01  7.421875E+00  0.000000E+00
  3.906250E-01  7.812500E+00  0.000000E+00
  3.906250E-01  8.203125E+00  0.000000E+00
  3.906250E-01  8.593750E+00  0.000000E+00
  3.906250E-01  8.984375E+00  0.000000E+00
  3.906250E-01  9.375000E+00  0.000000E+00
  3.906250E-01  9.765625E+00  0.000000E+00
  3.906250E-01  1.015625E+01  0.000000E+00
  3.906250E-01  1.054688E+01  0.000000E+00
  3.906250E-01  1.093750E+01  0.000000E+00
  3.906250E-01  1.132812E+01  0.000000E+00
  3.906250E-01  1.171875E+01  0.000000E+00
  3.906250E-01  1.210938E+01  0.000000E+00
  3.906250E-01  1.250000E+01  0.000000E+00
  3.906250E-01  1.289062E+01  0.000000E+00
  3.906250E-01  1.328125E+01  0.000000E+00
  3.906250E-01  1.367188E+01  0.000000E+00
  3.906250E-01  1.406250E+01  0.000000E+00
  3.906250E-01  1.445312E+01  0.000000E+00
  3.906250E-01  1.484375E+01  0.000000E+00
  3.906250E-01  1.523438E+01  0.000000E+00
  3.906250E-01  1.562500E+01  0.000000E+00
  3.906250E-01  1.601562E+01  0.000000E+00
  3.906250E-01  1.640625E+01  0.000000E+00
  3.906250E-01  1.679688E+01  0.000000E+00
  3.906250E-01  1.718750E+01  0.000000E+00
  3.906250E-01  1.757812E+01  0.000000E+00
  3.906250E-01  1.796875E+01  0.000000E+00
  3.906250E-01  1.835938E+01  0.000000E+00
  3.906250E-01  1.875000E+01  0.000000E+00
  3.906250E-01  1.914062E+01  0.000000E+00
  3.906250E-01  1.953125E+01  0.000000E+00
  3.906250E-01  1.992188E+01  0.000000E+00
  3.906250E-01  2.031250E+01  0.000000E+00
  3.906250E-01  2.070312E+01  0.000000E+00
  3.906250E-01  2.109375E+01  0.000000E+00
  3.906250E-01  2.148438E+01  0.000000E+00
  3.906250E-01  2.187500E+01  0.000000E+00
  3.906250E-01  2.226562E+01  0.000000E+00
  3.906250E-01  2.265625E+01  0.000000E+00
  3.906250E-01  2.304688E+01  0.000000E+00
  3.906250E-01  2.343750E+01  0.000000E+00
  3.906250E-01  2.382812E+01  0.000000E+00
  3.906250E-01  2.421875E+01  0.000000E+00
  3.906250E-01  2.460938E+01  0.000000E+00
  7.812500E-01  0.000000E+00  0.000000E+00
  7.812500E-01  3.906250E-01  0.000000E+00
  7.812500E-01  7.812500E-01  0.000000E+00
  7.812500E-01  1.171875E+00  0.000000E+00
  7.812500E-01  1.562500E+00  0.000000E+00
  7.812500E-01  1.953125E+00  0.000000E+00
  7.812500E-01  2.343750E+00  0.000000E+00
  7.812500E-01  2.734375E+00  0.000000E+00
  7.812500E-01  3.125000E+00  0.000000E+00
  7.812500E-01  3.515625E+00  0.000000E+00
  7.812500E-01  3.906250E+00  0.000000E+00
  7.812500E-01  4.296875E+00  0.000000E+00
  7.812500E-01  4.687500E+00  0.000000E+00
  7.812500E-01  5.078125E+00  0.000000E+00
  7.812500E-01  5.468750E+00  0.000000E+00
  7.812500E-01  5.859375E+00  0.000000E+00
  7.812500E-01  6.250000E+00  0.000000E+00
  7.812500E-01  6.640625E+00  0.000000E+00
  7.812500E-01  7.031250E+00  0.000000E+00
  7.812500E-01  7.421875E+00  0.000000E+00
  7.812500E-01  7.812500E+00  0.000000E+00
  7.812500E-01  8.203125E+00  0.000000E+00
  7.812500E-01  8.593750E+00  0.000000E+00
  7.812500E-01  8.984375E+00  0.000000E+00
  7.812500E-01  9.375000E+00  0.000000E+00
  7.812500E-01  9.765625E+00  0.000000E+00
  7.812500E-01  1.015625E+01  0.000000E+00
  7.812500E-01  1.054688E+01  0.000000E+00
  7.812500E-01  1.093750E+01  0.000000E+00
  7.812500E-01  1.132812E+01  0.000000E+00
  7.812500E-01  1.171875E+01  0.000000E+00
  7.812500E-01  1.210938E+01  0.000000E+00
  7.812500E-01  1.250000E+01  0.000000E+00
  7.812500E-01  1.289062E+01  0.000000E+00
  7.812500E-01  1.328125E+01  0.000000E+00
  7.812500E-01  1.367188E+01  0.000000E+00
  7.812500E-01  1.406250E+01  0.000000E+00
  7.812500E-01  1.445312E+01  0.000000E+00
  7.812500E-01  1.484375E+01  0.000000E+00
  7.812500E-01  1.523438E+01  0.000000E+00
  7.812500E-01  1.562500E+01  0.000000E+00
  7.812500E-01  1.601562E+01  0.000000E+00
  7.812500E-01  1.640625E+01  0.000000E+00
  7.812500E-01  1.679688E+01  0.000000E+00
  7.812500E-01  1.718750E+01  0.000000E+00
  7.812500E-01  1.757812E+01  0.000000E+00
  7.812500E-01  1.796875E+01  0.000000E+00
  7.812500E-01  1.835938E+01  0.000000E+00
  7.812500E-01  1.875000E+01  0.000000E+00
  7.812500E-01  1.914062E+01  0.000000E+00
  7.812500E-01  1.953125E+01  0.000000E+00
  7.812500E-01  1.992188E+01  0.000000E+00
  7.812500E-01  2.031250E+01  0.000000E+00
  7.812500E-01  2.070312E+01  0.000000E+00
  7.812500E-01  2.109375E+01  0.000000E+00
  7.812500E-01  2.148438E+01  0.000000E+00
  7.812500E-01  2.187500E+01  0.000000E+00
  7.812500E-01  2.226562E+01  0.000000E+00
  7.812500E-01  2.265625E+01  0.000000E+00
  7.812500E-01  2.304688E+01  0.000000E+00
  7.812500E-01  2.343750E+01  0.000000E+00
  7.812500E-01  2.382812E+01  0.000000E+00
  7.812500E-01  2.421875E+01  0.000000E+00
  7.812500E-01  2.460938E+01  0.000000E+00
  1.171875E+00  0.000000E+00  0.000000E+00
  1.171875E+00  3.906250E-01  0.000000E+00
  1.171875E+00  7.812500E-01  0.000000E+00
  1.171875E+00  1.171875E+00  0.000000E+00
  1.171875E+00  1.562500E+00  0.000000E+00
  1.171875E+00  1.953125E+00  0.000000E+00
  1.171875E+00  2.343750E+00  0.000000E+00
  1.171875E+00  2.734375E+00  0.000000E+00
  1.171875E+00  3.125000E+00  0.000000E+00
  1.171875E+00  3.515625E+00  0.000000E+00
  1.171875E+00  3.906250E+00  0.000000E+00
  1.171875E+00  4.296875E+00  0.000000E+00
  1.171875E+00  4.687500E+00  0.000000E+00
  1.171875E+00  5.078125E+00  0.000000E+00
  1.171875E+00  5.468750E+00  0.000000E+00
  1.171875E+00  5.859375E+00  0.000000E+00
  1.171875E+00  6.250000E+00  0.000000E+00
  1.171875E+00  6.640625E+00  0.000000E+00
  1.171875E+00  7.031250E+00  0.000000E+00
  1.171875E+00  7.421875E+00  0.000000E+00
  1.171875E+00  7.812500E+00  0.000000E+00
  1.171875E+00  8.203125E+00  0.000000E+00
  1.171875E+00  8.593750E+00  0.000000E+00
  1.171875E+00  8.984375E+00  0.000000E+00
  1.171875E+00  9.375000E+00  0.000000E+00
  1.171875E+00  9.765625E+00  0.000000E+00
  1.171875E+00  1.015625E+01  0.000000E+00
  1.171875E+00  1.054688E+01  0.000000E+00
  1.171875E+00  1.093750E+01  0.000000E+00
  1.171875E+00  1.132812E+01  0.000000E+00
  1.171875E+00  1.171875E+01  0.000000E+00
  1.171875E+00  1.210938E+01  0.000000E+00
  1.171875E+00  1.250000E+01  0.000000E+00
  1.171875E+00  1.289062E+01  0.000000E+00
  1.171875E+00  1.328125E+01  0.000000E+00
  1.171875E+00  1.367188E+01  0.000000E+00
  1.171875E+00  1.406250E+01  0.000000E+00
  1.171875E+00  1.445312E+01  0.000000E+00
[...]
POINT_DATA   4096
SCALARS CON  float  1
LOOKUP_TABLE default
  4.702644E-01
  4.685347E-01
  4.741009E-01
  4.736726E-01
  4.739347E-01
  4.667301E-01
  4.666700E-01
  4.664512E-01
  4.729088E-01
  4.717552E-01
  4.717480E-01
  4.662717E-01
  4.678859E-01
  4.662586E-01
  4.688425E-01
  4.658350E-01
  4.690424E-01
  4.693545E-01
  4.739778E-01
  4.707600E-01
  4.702201E-01
  4.649911E-01
  4.658514E-01
  4.627755E-01
  4.648398E-01
  4.618124E-01
  4.635708E-01
  4.621850E-01
  4.687831E-01
  4.715318E-01
  4.752270E-01
  4.684366E-01
  4.657295E-01
  4.631589E-01
  4.699702E-01
  4.708856E-01
  4.722008E-01
  4.660280E-01
  4.653771E-01
  4.618823E-01
  4.648761E-01
  4.633444E-01
  4.655436E-01
  4.621850E-01
  4.645712E-01
  4.628029E-01
  4.654131E-01
  4.643813E-01
  4.715313E-01
  4.739337E-01
  4.755592E-01
  4.671194E-01
  4.645980E-01
  4.617427E-01
  4.670014E-01
  4.694353E-01
  4.777767E-01
  4.789798E-01
  4.800277E-01
  4.733528E-01
  4.733733E-01
  4.712985E-01
  4.739331E-01
  4.697344E-01
  4.699003E-01
  4.691521E-01
  4.771313E-01
  4.800183E-01
  4.798630E-01
  4.694971E-01
  4.649875E-01
  4.632885E-01
  4.697857E-01
  4.698512E-01
  4.701308E-01
  4.664240E-01
  4.697921E-01
  4.694017E-01
  4.700550E-01
  4.648000E-01
  4.664171E-01
  4.683187E-01
  4.753844E-01
  4.746819E-01
  4.732648E-01
  4.656048E-01
  4.638552E-01
  4.616069E-01
  4.657934E-01
  4.653555E-01
  4.672021E-01
  4.646915E-01
  4.684435E-01
  4.697519E-01
  4.733931E-01
  4.690074E-01
  4.674576E-01
  4.643739E-01
  4.681066E-01
  4.672870E-01
  4.684406E-01
  4.646245E-01
  4.660097E-01
  4.644881E-01
  4.667155E-01
  4.629139E-01
  4.618972E-01
  4.579111E-01
  4.605254E-01
  4.600986E-01
  4.636225E-01
  4.649325E-01
  4.739998E-01
  4.782984E-01
  4.793871E-01
  4.694678E-01
  4.649169E-01
  4.630219E-01
  4.703512E-01
  4.744659E-01
  4.808653E-01
  4.793088E-01
  4.775496E-01
  4.701194E-01
  4.697694E-01
  4.692111E-01
  4.731430E-01
  4.700460E-01
  4.632055E-01
  4.682297E-01
  4.779358E-01
  4.814453E-01
  4.790724E-01
  4.698806E-01
  4.658824E-01
  4.653974E-01
  4.695970E-01
  4.699213E-01
  4.705482E-01
  4.690432E-01
  4.709269E-01
  4.704534E-01
  4.707856E-01
  4.681246E-01
  4.692053E-01
  4.702684E-01
  4.739100E-01
  4.731569E-01
  4.721534E-01
  4.677321E-01
  4.660828E-01
  4.638781E-01
  4.656544E-01
  4.653360E-01
  4.659525E-01
  4.637423E-01
  4.651248E-01
  4.654231E-01
  4.667558E-01
  4.635962E-01
  4.630137E-01
  4.635513E-01
  4.689725E-01
  4.707165E-01
  4.708756E-01
  4.666193E-01
  4.655301E-01
  4.640541E-01
  4.653826E-01
  4.630692E-01
  4.609959E-01
  4.564843E-01
  4.568720E-01
  4.583779E-01
  4.639582E-01
  4.684232E-01
  4.761924E-01
  4.795220E-01
  4.785079E-01
  4.699681E-01
  4.654303E-01
  4.644837E-01
  4.697559E-01
  4.737332E-01
  4.794908E-01
  4.801756E-01
  4.777487E-01
  4.690672E-01
  4.637141E-01
  4.600284E-01
  4.609554E-01
  4.600654E-01
  4.624446E-01
  4.690561E-01
  4.769432E-01
  4.818208E-01
  4.766108E-01
  4.679273E-01
  4.612353E-01
  4.623826E-01
  4.655713E-01
  4.689765E-01
  4.694214E-01
  4.715181E-01
  4.730537E-01
  4.742805E-01
  4.712169E-01
  4.686398E-01
  4.673569E-01
  4.704052E-01
  4.724892E-01
  4.735893E-01
  4.711535E-01
  4.696398E-01
  4.681197E-01
  4.694474E-01
  4.700486E-01
  4.709447E-01
  4.685925E-01
  4.661322E-01
  4.629850E-01
  4.635427E-01
  4.650619E-01
  4.679506E-01
  4.679556E-01
  4.680580E-01
  4.668599E-01
  4.669631E-01
  4.652915E-01
  4.652150E-01
  4.658600E-01
  4.693456E-01
  4.696385E-01
  4.670071E-01
  4.615626E-01
  4.605168E-01
  4.621654E-01
  4.657813E-01
  4.663845E-01
  4.681127E-01
  4.707141E-01
  4.748391E-01
  4.732572E-01
  4.683809E-01
  4.636533E-01
  4.663171E-01
  4.719168E-01
  4.782102E-01
  4.800383E-01
  4.793852E-01
  4.736250E-01
  4.673105E-01
  4.616320E-01
  4.608733E-01
  4.605794E-01
  4.614041E-01
  4.599352E-01
  4.703595E-01
  4.745526E-01
  4.783131E-01
  4.697760E-01
  4.653577E-01
  4.593337E-01
  4.629587E-01
  4.625761E-01
  4.679164E-01
  4.680482E-01
  4.732902E-01
  4.712486E-01
  4.728951E-01
  4.683182E-01
  4.700215E-01
  4.676129E-01
  4.714898E-01
  4.691608E-01
  4.714019E-01
  4.684136E-01
  4.719006E-01
  4.693858E-01
  4.707522E-01
  4.659467E-01
  4.676173E-01
  4.643851E-01
  4.657964E-01
  4.608671E-01
  4.627769E-01
  4.619176E-01
  4.675422E-01
  4.657961E-01
  4.679375E-01
  4.653221E-01
  4.691892E-01
  4.662418E-01
  4.672897E-01
  4.639289E-01
  4.681920E-01
  4.662406E-01
  4.668559E-01
  4.611408E-01
  4.641537E-01
  4.654927E-01
  4.722954E-01
  4.695888E-01
  4.693750E-01
  4.647463E-01
  4.682240E-01
  4.658980E-01
  4.669053E-01
  4.625809E-01
  4.665579E-01
  4.668664E-01
  4.725656E-01
  4.721893E-01
  4.762090E-01
  4.717536E-01
  4.698899E-01
  4.618969E-01
  4.606863E-01
  4.556295E-01
  4.585353E-01
  4.653478E-01
  4.721841E-01
  4.723512E-01
  4.756348E-01
  4.673782E-01
  4.641442E-01
  4.566475E-01
  4.594401E-01
  4.580153E-01
  4.643987E-01
  4.646479E-01
  4.712843E-01
  4.695000E-01
  4.717941E-01
  4.656017E-01
  4.668593E-01
  4.642793E-01
  4.707483E-01
  4.702553E-01
  4.742877E-01
  4.699761E-01
  4.722195E-01
  4.674632E-01
  4.682530E-01
  4.622140E-01
  4.650497E-01
  4.634294E-01
  4.676092E-01
  4.626294E-01
  4.651517E-01
  4.654870E-01
  4.744242E-01
  4.720717E-01
  4.705667E-01
  4.620837E-01
  4.644074E-01
  4.626283E-01
  4.673377E-01
  4.657595E-01
  4.716532E-01
  4.682243E-01
  4.670894E-01
  4.599844E-01
  4.664923E-01
  4.716547E-01
  4.805127E-01
  4.742057E-01
  4.696215E-01
  4.608451E-01
  4.643781E-01
  4.632735E-01
  4.666107E-01
  4.619324E-01
  4.659045E-01
  4.651118E-01
  4.702033E-01
  4.667720E-01
  4.694262E-01
  4.658456E-01
  4.695585E-01
  4.666514E-01
  4.696947E-01
  4.651259E-01
  4.675555E-01
  4.657469E-01
  4.702777E-01
  4.695351E-01
  4.705467E-01
  4.655186E-01
  4.651613E-01
  4.619039E-01
  4.631428E-01
  4.602864E-01
  4.635281E-01
  4.647267E-01
  4.695389E-01
  4.670539E-01
  4.669536E-01
  4.636242E-01
  4.668665E-01
  4.676324E-01
  4.730350E-01
  4.729153E-01
  4.749565E-01
  4.716104E-01
  4.723977E-01
  4.674635E-01
  4.639923E-01
  4.561038E-01
  4.569260E-01
  4.587942E-01
  4.655020E-01
  4.645477E-01
  4.663857E-01
  4.668155E-01
  4.731540E-01
  4.713054E-01
  4.690520E-01
  4.638892E-01
  4.679311E-01
  4.691426E-01
  4.717976E-01
  4.684066E-01
  4.698452E-01
  4.664506E-01
  4.652416E-01
  4.605798E-01
  4.653404E-01
  4.708317E-01
  4.795530E-01
  4.770791E-01
  4.726766E-01
  4.641541E-01
  4.646464E-01
  4.641406E-01
  4.670206E-01
  4.638281E-01
  4.646742E-01
  4.617330E-01
  4.631639E-01
  4.610385E-01
  4.646424E-01
  4.653787E-01
  4.706257E-01
  4.701308E-01
  4.711540E-01
  4.662841E-01
  4.668310E-01
  4.674731E-01
  4.669076E-01
  4.669209E-01
  4.692922E-01
  4.690014E-01
  4.687705E-01
  4.664855E-01
  4.657380E-01
  4.639937E-01
  4.652047E-01
  4.664259E-01
  4.690805E-01
  4.683880E-01
  4.675665E-01
  4.655026E-01
  4.670523E-01
  4.696536E-01
  4.751871E-01
  4.779814E-01
  4.786472E-01
  4.745148E-01
  4.714085E-01
  4.674690E-01
  4.645045E-01
  4.597872E-01
  4.595761E-01
  4.623501E-01
  4.674987E-01
  4.679406E-01
  4.685954E-01
  4.711793E-01
  4.775778E-01
  4.778862E-01
  4.730150E-01
  4.664364E-01
  4.671478E-01
  4.700089E-01
  4.728782E-01
  4.721354E-01
  4.728207E-01
  4.708181E-01
  4.675784E-01
  4.632189E-01
  4.655572E-01
  4.710384E-01
  4.768706E-01
  4.754614E-01
  4.712567E-01
  4.663814E-01
  4.669154E-01
  4.676879E-01
  4.680751E-01
  4.652369E-01
  4.652812E-01
  4.659199E-01
  4.676157E-01
  4.654409E-01
  4.639161E-01
  4.631257E-01
  4.671536E-01
  4.707028E-01
  4.737820E-01
  4.724652E-01
  4.708689E-01
  4.614835E-01
  4.628476E-01
  4.647237E-01
  4.684016E-01
  4.698891E-01
  4.721081E-01
  4.725928E-01
  4.728726E-01
  4.703276E-01
  4.700061E-01
  4.703363E-01
  4.716318E-01
  4.692311E-01
  4.676360E-01
  4.671932E-01
  4.706639E-01
  4.733872E-01
  4.766895E-01
  4.770746E-01
  4.762508E-01
  4.722389E-01
  4.701168E-01
  4.678443E-01
  4.662498E-01
  4.624588E-01
  4.619975E-01
  4.639531E-01
  4.683137E-01
  4.687235E-01
  4.684833E-01
  4.687524E-01
  4.726761E-01
  4.735831E-01
  4.724966E-01
  4.706596E-01
  4.736354E-01
  4.756504E-01
  4.752065E-01
  4.706038E-01
  4.683424E-01
  4.669228E-01
  4.673484E-01
  4.659282E-01
  4.660956E-01
  4.662020E-01
  4.684490E-01
  4.685460E-01
  4.685526E-01
  4.673943E-01
  4.691531E-01
  4.698925E-01
  4.700322E-01
  4.672600E-01
  4.667798E-01
  4.672008E-01
  4.697137E-01
  4.693346E-01
  4.682077E-01
  4.655259E-01
  4.657782E-01
  4.657744E-01
  4.663251E-01
  4.642455E-01
  4.631400E-01
  4.615447E-01
  4.616619E-01
  4.641931E-01
  4.697056E-01
  4.715324E-01
  4.723202E-01
  4.710819E-01
  4.717383E-01
  4.708192E-01
  4.714808E-01
  4.711714E-01
  4.724012E-01
  4.711116E-01
  4.703835E-01
  4.682658E-01
  4.685815E-01
  4.686828E-01
  4.718302E-01
  4.737863E-01
  4.746748E-01
  4.704431E-01
  4.672572E-01
  4.654062E-01
  4.673257E-01
  4.677645E-01
  4.696702E-01
  4.708277E-01
  4.728278E-01
  4.706237E-01
  4.687581E-01
  4.680637E-01
  4.720160E-01
  4.734462E-01
  4.727011E-01
  4.695206E-01
  4.705265E-01
  4.715154E-01
  4.719809E-01
  4.686865E-01
  4.673177E-01
  4.660017E-01
  4.670211E-01
  4.669844E-01
  4.685714E-01
  4.674583E-01
  4.659995E-01
  4.626747E-01
  4.629903E-01
  4.651230E-01
  4.705175E-01
  4.724793E-01
  4.718044E-01
  4.677856E-01
  4.681893E-01
  4.715557E-01
  4.770694E-01
  4.764667E-01
  4.720455E-01
  4.651981E-01
  4.633589E-01
  4.637413E-01
  4.665902E-01
  4.663372E-01
  4.651763E-01
  4.596647E-01
  4.612733E-01
  4.640284E-01
  4.675324E-01
  4.686754E-01
  4.700368E-01
  4.709196E-01
  4.719907E-01
  4.708550E-01
  4.707342E-01
  4.710915E-01
  4.720244E-01
  4.701350E-01
  4.681743E-01
  4.664976E-01
  4.668543E-01
  4.667743E-01
  4.683323E-01
  4.699182E-01
  4.712116E-01
  4.690411E-01
  4.666277E-01
  4.645568E-01
  4.648127E-01
  4.653417E-01
  4.681720E-01
  4.712046E-01
  4.736862E-01
  4.716943E-01
  4.678728E-01
  4.640251E-01
  4.638890E-01
  4.646366E-01
  4.663791E-01
  4.679490E-01
  4.713707E-01
  4.727498E-01
  4.713052E-01
  4.659799E-01
  4.616299E-01
  4.596280E-01
  4.625200E-01
  4.664317E-01
  4.691904E-01
  4.673370E-01
  4.644529E-01
  4.620733E-01
  4.636602E-01
  4.671916E-01
  4.719789E-01
  4.732678E-01
  4.716926E-01
  4.678472E-01
  4.669154E-01
  4.688055E-01
  4.734127E-01
  4.752570E-01
  4.738553E-01
  4.693495E-01
  4.668374E-01
  4.655272E-01
  4.652793E-01
  4.630744E-01
  4.612245E-01
  4.636582E-01
  4.631055E-01
  4.644504E-01
  4.676174E-01
  4.688021E-01
  4.691246E-01
  4.680188E-01
  4.677164E-01
  4.668430E-01
  4.674564E-01
  4.682996E-01
  4.701346E-01
  4.698701E-01
  4.684707E-01
  4.654453E-01
  4.641670E-01
  4.644449E-01
  4.682178E-01
  4.723705E-01
  4.750333E-01
  4.724275E-01
  4.680159E-01
  4.639678E-01
  4.635816E-01
  4.649855E-01
  4.691933E-01
  4.733576E-01
  4.761699E-01
  4.739133E-01
  4.697754E-01
  4.661371E-01
  4.663117E-01
  4.666711E-01
  4.664303E-01
  4.648293E-01
  4.656555E-01
  4.671386E-01
  4.684436E-01
  4.666679E-01
  4.642587E-01
  4.615528E-01
  4.620933E-01
  4.649839E-01
  4.695547E-01
  4.707008E-01
  4.691412E-01
  4.661525E-01
  4.666560E-01
  4.694869E-01
  4.732033E-01
  4.727028E-01
  4.692835E-01
  4.647979E-01
  4.645281E-01
  4.675121E-01
  4.723963E-01
  4.738239E-01
  4.724278E-01
  4.694570E-01
  4.695529E-01
  4.708108E-01
  4.720472E-01
  4.700464E-01
  4.671241E-01
  4.619775E-01
  4.648428E-01
  4.649780E-01
  4.673716E-01
  4.674503E-01
  4.702186E-01
  4.693943E-01
  4.690612E-01
  4.653240E-01
  4.660153E-01
  4.666934E-01
  4.697304E-01
  4.675072E-01
  4.661874E-01
  4.637167E-01
  4.664018E-01
  4.679911E-01
  4.722263E-01
  4.733223E-01
  4.755274E-01
  4.729098E-01
  4.708884E-01
  4.654982E-01
  4.632263E-01
  4.606642E-01
  4.640697E-01
  4.674367E-01
  4.727300E-01
  4.719874E-01
  4.704127E-01
  4.657671E-01
  4.656266E-01
  4.646212E-01
  4.664069E-01
  4.658829E-01
  4.686754E-01
  4.687300E-01
  4.695806E-01
  4.659113E-01
  4.640865E-01
  4.609665E-01
  4.629999E-01
  4.642900E-01
  4.675898E-01
  4.669346E-01
  4.686411E-01
  4.686141E-01
  4.716275E-01
  4.715728E-01
  4.723065E-01
  4.682110E-01
  4.658226E-01
  4.621357E-01
  4.628148E-01
  4.623342E-01
  4.656622E-01
  4.673980E-01
  4.715002E-01
  4.720636E-01
  4.741031E-01
  4.718614E-01
  4.697812E-01
  4.641799E-01
  4.629528E-01
  4.652142E-01
  4.672109E-01
  4.661552E-01
  4.691744E-01
  4.691901E-01
  4.710936E-01
  4.676936E-01
  4.664957E-01
  4.628658E-01
  4.644116E-01
  4.644368E-01
  4.679234E-01
  4.666685E-01
  4.668383E-01
  4.637884E-01
  4.659471E-01
  4.667685E-01
  4.712875E-01
  4.721196E-01
  4.751462E-01
  4.729174E-01
  4.717779E-01
  4.666330E-01
  4.655733E-01
  4.627737E-01
  4.648023E-01
  4.651622E-01
  4.693137E-01
  4.690481E-01
  4.704318E-01
  4.687339E-01
  4.716462E-01
  4.709401E-01
  4.707896E-01
  4.657386E-01
  4.653723E-01
  4.641452E-01
  4.669943E-01
  4.664996E-01
  4.691180E-01
  4.678079E-01
  4.685198E-01
  4.656043E-01
  4.668193E-01
  4.660262E-01
  4.689586E-01
  4.682169E-01
  4.699662E-01
  4.678571E-01
  4.680424E-01
  4.638162E-01
  4.629673E-01
  4.610397E-01
  4.646460E-01
  4.655898E-01
  4.688485E-01
  4.679388E-01
  4.701443E-01
  4.695516E-01
  4.721334E-01
  4.700963E-01
  4.695909E-01
  4.657027E-01
  4.664997E-01
  4.656477E-01
  4.678435E-01
  4.667478E-01
  4.667918E-01
  4.673544E-01
  4.697793E-01
  4.699230E-01
  4.689888E-01
  4.659138E-01
  4.650359E-01
  4.649265E-01
  4.661082E-01
  4.647784E-01
  4.641827E-01
  4.645891E-01
  4.680933E-01
  4.695487E-01
  4.694326E-01
  4.676730E-01
  4.691882E-01
  4.711784E-01
  4.727188E-01
  4.700696E-01
  4.667667E-01
  4.626086E-01
  4.607308E-01
  4.597634E-01
  4.623933E-01
  4.649664E-01
  4.670020E-01
  4.660721E-01
  4.664997E-01
  4.668278E-01
  4.679704E-01
  4.675070E-01
  4.683316E-01
  4.677063E-01
  4.670258E-01
  4.653360E-01
  4.665552E-01
  4.681164E-01
  4.698787E-01
  4.679459E-01
  4.655072E-01
  4.634537E-01
  4.653564E-01
  4.668635E-01
  4.674507E-01
  4.649414E-01
  4.630682E-01
  4.609671E-01
  4.620147E-01
  4.643600E-01
  4.681681E-01
  4.687316E-01
  4.683460E-01
  4.671591E-01
  4.684857E-01
  4.688621E-01
  4.685203E-01
  4.648040E-01
  4.616828E-01
  4.598752E-01
  4.626645E-01
  4.736115E-01
  4.700684E-01
  4.677992E-01
  4.655827E-01
  4.676002E-01
  4.674945E-01
  4.685904E-01
  4.671182E-01
  4.676234E-01
  4.654733E-01
  4.653681E-01
  4.638874E-01
  4.652958E-01
  4.649783E-01
  4.677209E-01
  4.690404E-01
  4.711406E-01
  4.686702E-01
  4.685290E-01
  4.691534E-01
  4.732655E-01
  4.727503E-01
  4.712918E-01
  4.671267E-01
  4.658130E-01
  4.623401E-01
  4.616532E-01
  4.613406E-01
  4.649339E-01
  4.651784E-01
  4.659842E-01
  4.655269E-01
  4.684857E-01
  4.681337E-01
  4.680075E-01
  4.656241E-01
  4.660906E-01
  4.645525E-01
  4.660790E-01
  4.673815E-01
  4.709618E-01
  4.697388E-01
  4.684543E-01
  4.659083E-01
  4.678242E-01
  4.678651E-01
  4.676897E-01
  4.633528E-01
  4.619549E-01
  4.606740E-01
  4.628151E-01
  4.635034E-01
  4.679222E-01
  4.714343E-01
  4.754046E-01
  4.730445E-01
  4.697479E-01
  4.643744E-01
  4.629284E-01
  4.606210E-01
  4.613748E-01
  4.620378E-01
  4.674522E-01
  4.710565E-01
  4.768496E-01
  4.728544E-01
  4.690103E-01
  4.642318E-01
  4.653040E-01
  4.656835E-01
  4.688814E-01
  4.685976E-01
  4.697670E-01
  4.674279E-01
  4.674574E-01
  4.645551E-01
  4.641143E-01
  4.627421E-01
  4.677527E-01
  4.721688E-01
  4.762288E-01
  4.723811E-01
  4.698302E-01
  4.682260E-01
  4.723671E-01
  4.721558E-01
  4.704887E-01
  4.645300E-01
  4.624052E-01
  4.590746E-01
  4.599551E-01
  4.608475E-01
  4.653717E-01
  4.641933E-01
  4.623426E-01
  4.593523E-01
  4.634738E-01
  4.671507E-01
  4.721526E-01
  4.718221E-01
  4.713885E-01
  4.665027E-01
  4.648765E-01
  4.630921E-01
  4.656422E-01
  4.652517E-01
  4.666767E-01
  4.659320E-01
  4.690824E-01
  4.691182E-01
  4.688185E-01
  4.635408E-01
  4.622169E-01
  4.615732E-01
  4.653562E-01
  4.665975E-01
  4.706595E-01
  4.717870E-01
  4.730892E-01
  4.684093E-01
  4.654313E-01
  4.614840E-01
  4.615810E-01
  4.589285E-01
  4.593320E-01
  4.600626E-01
  4.672701E-01
  4.726677E-01
  4.812752E-01
  4.757431E-01
  4.702132E-01
  4.668406E-01
  4.664065E-01
  4.651667E-01
  4.643604E-01
  4.642019E-01
  4.662452E-01
  4.671598E-01
  4.671184E-01
  4.651914E-01
  4.637828E-01
  4.627130E-01
  4.649035E-01
  4.686552E-01
  4.722901E-01
  4.718802E-01
  4.703137E-01
  4.691851E-01
  4.700250E-01
  4.690182E-01
  4.669060E-01
  4.642180E-01
  4.635630E-01
  4.628012E-01
  4.634397E-01
  4.650886E-01
  4.676866E-01
  4.667638E-01
  4.646425E-01
  4.645335E-01
  4.692241E-01
  4.731468E-01
  4.738699E-01
  4.706754E-01
  4.677229E-01
  4.652440E-01
  4.653154E-01
  4.659553E-01
  4.665266E-01
  4.648454E-01
  4.649936E-01
  4.681019E-01
  4.732961E-01
  4.737507E-01
  4.690497E-01
  4.621740E-01
  4.602721E-01
  4.627929E-01
  4.671246E-01
  4.685930E-01
  4.695976E-01
  4.705578E-01
  4.715390E-01
  4.687371E-01
  4.645938E-01
  4.610000E-01
  4.605366E-01
  4.605570E-01
  4.624925E-01
  4.668243E-01
  4.747810E-01
  4.806247E-01
  4.757717E-01
  4.737899E-01
  4.697764E-01
  4.667206E-01
  4.654590E-01
  4.650631E-01
  4.645717E-01
  4.642960E-01
  4.646862E-01
  4.658082E-01
  4.665694E-01
  4.655146E-01
  4.624277E-01
  4.600135E-01
  4.610781E-01
  4.651124E-01
  4.682773E-01
  4.679947E-01
  4.652776E-01
  4.634483E-01
  4.642111E-01
  4.663359E-01
  4.672159E-01
  4.662029E-01
  4.643146E-01
  4.629020E-01
  4.631443E-01
  4.657850E-01
  4.685740E-01
  4.681353E-01
  4.651230E-01
  4.645808E-01
  4.686039E-01
  4.735936E-01
  4.749934E-01
  4.725280E-01
  4.687102E-01
  4.659003E-01
  4.646487E-01
  4.643752E-01
  4.641053E-01
  4.640823E-01
  4.653606E-01
  4.684218E-01
  4.713421E-01
  4.712092E-01
  4.671032E-01
  4.620908E-01
  4.600723E-01
  4.619861E-01
  4.651132E-01
  4.671082E-01
  4.679128E-01
  4.681110E-01
  4.668266E-01
  4.642731E-01
  4.629878E-01
  4.649297E-01
  4.679999E-01
  4.689168E-01
  4.675170E-01
  4.670983E-01
  4.697575E-01
  4.739076E-01
  4.730609E-01
  4.695237E-01
  4.690493E-01
  4.667599E-01
  4.678253E-01
  4.649626E-01
  4.642608E-01
  4.611049E-01
  4.622382E-01
  4.613547E-01
  4.638127E-01
  4.632781E-01
  4.651860E-01
  4.633007E-01
  4.640100E-01
  4.619769E-01
  4.632830E-01
  4.615737E-01
  4.624211E-01
  4.603579E-01
  4.627085E-01
  4.642794E-01
  4.696734E-01
  4.705000E-01
  4.716021E-01
  4.682064E-01
  4.688487E-01
  4.686989E-01
  4.717246E-01
  4.695744E-01
  4.696740E-01
  4.694827E-01
  4.745080E-01
  4.740478E-01
  4.716213E-01
  4.644976E-01
  4.631953E-01
  4.626182E-01
  4.665831E-01
  4.669149E-01
  4.684113E-01
  4.657056E-01
  4.671833E-01
  4.681334E-01
  4.719266E-01
  4.689566E-01
  4.655282E-01
  4.595878E-01
  4.599662E-01
  4.601798E-01
  4.637651E-01
  4.634811E-01
  4.661243E-01
  4.665959E-01
  4.697521E-01
  4.683955E-01
  4.697520E-01
  4.699079E-01
  4.742788E-01
  4.742009E-01
  4.746852E-01
  4.716234E-01
  4.729582E-01
  4.720959E-01
  4.664858E-01
  4.649189E-01
  4.684996E-01
  4.648581E-01
  4.676623E-01
  4.650408E-01
  4.686275E-01
  4.641655E-01
  4.643388E-01
  4.591817E-01
  4.630576E-01
  4.623956E-01
  4.677324E-01
  4.661793E-01
  4.704104E-01
  4.668586E-01
  4.674996E-01
  4.608826E-01
  4.611533E-01
  4.572074E-01
  4.628118E-01
  4.650550E-01
  4.730690E-01
  4.708959E-01
  4.715403E-01
  4.658354E-01
  4.691498E-01
  4.685785E-01
  4.734209E-01
  4.685597E-01
  4.685266E-01
  4.648544E-01
  4.703926E-01
  4.686781E-01
  4.700575E-01
  4.641903E-01
  4.663660E-01
  4.636447E-01
  4.666626E-01
  4.627996E-01
  4.661013E-01
  4.645967E-01
  4.696698E-01
  4.673127E-01
  4.695604E-01
  4.644451E-01
  4.658297E-01
  4.619527E-01
  4.648659E-01