# vtk DataFile Version 2.0
title
ASCII
DATASET STRUCTURED_GRID
DIMENSIONS   64   64    1
POINTS   4096  float
  0.000000E+00  0.000000E+00  0.000000E+00
  0.000000E+00  3.906250E-01  0.000000E+00
  0.000000E+00  7.812500E-01  0.000000E+00
  0.000000E+00  1.171875E+00  0.000000E+00
  0.000000E+00  1.562500E+00  0.000000E+00
  0.000000E+00  1.953125E+00  0.000000E+00
  0.000000E+00  2.343750E+00  0.000000E+00
  0.000000E+00  2.734375E+00  0.000000E+00
  0.000000E+00  3.125000E+00  0.000000E+00
  0.000000E+00  3.515625E+00  0.000000E+00
  0.000000E+00  3.906250E+00  0.000000E+00
  0.000000E+00  4.296875E+00  0.000000E+00
  0.000000E+00  4.687500E+00  0.000000E+00
  0.000000E+00  5.078125E+00  0.000000E+00
  0.000000E+00  5.468750E+00  0.000000E+00
  0.000000E+00  5.859375E+00  0.000000E+00
  0.000000E+00  6.250000E+00  0.000000E+00
  0.000000E+00  6.640625E+00  0.000000E+00
  0.000000E+00  7.031250E+00  0.000000E+00
  0.000000E+00  7.421875E+00  0.000000E+00
  0.000000E+00  7.812500E+00  0.000000E+00
  0.000000E+00  8.203125E+00  0.000000E+00
  0.000000E+00  8.593750E+00  0.000000E+00
  0.000000E+00  8.984375E+00  0.000000E+00
  0.000000E+00  9.375000E+00  0.000000E+00
  0.000000E+00  9.765625E+00  0.000000E+00
  0.000000E+00  1.015625E+01  0.000000E+00
  0.000000E+00  1.054688E+01  0.000000E+00
  0.000000E+00  1.093750E+01  0.000000E+00
  0.000000E+00  1.132812E+01  0.000000E+00
  0.000000E+00  1.171875E+01  0.000000E+00
  0.000000E+00  1.210938E+01  0.000000E+00
  0.000000E+00  1.250000E+01  0.000000E+00
  0.000000E+00  1.289062E+01  0.000000E+00
  0.000000E+00  1.328125E+01  0.000000E+00
  0.000000E+00  1.367188E+01  0.000000E+00
  0.000000E+00  1.406250E+01  0.000000E+00
  0.000000E+00  1.445312E+01  0.000000E+00
  0.000000E+00  1.484375E+01  0.000000E+00
  0.000000E+00  1.523438E+01  0.000000E+00
  0.000000E+00  1.562500E+01  0.000000E+00
  0.000000E+00  1.601562E+01  0.000000E+00
  0.000000E+00  1.640625E+01  0.000000E+00
  0.000000E+00  1.679688E+01  0.000000E+00
  0.000000E+00  1.718750E+01  0.000000E+00
  0.000000E+00  1.757812E+01  0.000000E+00
  0.000000E+00  1.796875E+01  0.000000E+00
  0.000000E+00  1.835938E+01  0.000000E+00
  0.000000E+00  1.875000E+01  0.000000E+00
  0.000000E+00  1.914062E+01  0.000000E+00
  0.000000E+00  1.953125E+01  0.000000E+00
  0.000000E+00  1.992188E+01  0.000000E+00
  0.000000E+00  2.031250E+01  0.000000E+00
  0.000000E+00  2.070312E+01  0.000000E+00
  0.000000E+00  2.109375E+01  0.000000E+00
  0.000000E+00  2.148438E+01  0.000000E+00
  0.000000E+00  2.187500E+01  0.000000E+00
  0.000000E+00  2.226562E+01  0.000000E+00
  0.000000E+00  2.265625E+01  0.000000E+00
  0.000000E+00  2.304688E+01  0.000000E+00
  0.000000E+00  2.343750E+01  0.000000E+00
  0.000000E+00  2.382812E+01  0.000000E+00
  0.000000E+00  2.421875E+01  0.000000E+00
  0.000000E+00  2.460938E+01  0.000000E+00
  3.906250E-01  0.000000E+00  0.000000E+00
  3.906250E-01  3.906250E-01  0.000000E+00
  3.906250E-01  7.812500E-01  0.000000E+00
  3.906250E-01  1.171875E+00  0.000000E+00
  3.906250E-01  1.562500E+00  0.000000E+00
  3.906250E-01  1.953125E+00  0.000000E+00
  3.906250E-01  2.343750E+00  0.000000E+00
  3.906250E-01  2.734375E+00  0.000000E+00
  3.906250E-01  3.125000E+00  0.000000E+00
  3.906250E-01  3.515625E+00  0.000000E+00
  3.906250E-01  3.906250E+00  0.000000E+00
  3.906250E-01  4.296875E+00  0.000000E+00
  3.906250E-01  4.687500E+00  0.000000E+00
  3.906250E-01  5.078125E+00  0.000000E+00
  3.906250E-01  5.468750E+00  0.000000E+00
  3.906250E-01  5.859375E+00  0.000000E+00
  3.906250E-01  6.250000E+00  0.000000E+00
  3.906250E-01  6.640625E+00  0.000000E+00
  3.906250E-01  7.031250E+00  0.000000E+00
  3.906250E-01  7.421875E+00  0.000000E+00
  3.906250E-01  7.812500E+00  0.000000E+00
  3.906250E-01  8.203125E+00  0.000000E+00
  3.906250E-01  8.593750E+00  0.000000E+00
  3.906250E-01  8.984375E+00  0.000000E+00
  3.906250E-01  9.375000E+00  0.000000E+00
  3.906250E-01  9.765625E+00  0.000000E+00
  3.906250E-01  1.015625E+01  0.000000E+00
  3.906250E-01  1.054688E+01  0.000000E+00
  3.906250E-01  1.093750E+01  0.000000E+00
  3.906250E-01  1.132812E+01  0.000000E+00
  3.906250E-01  1.171875E+01  0.000000E+00
  3.906250E-01  1.210938E+01  0.000000E+00
  3.906250E-01  1.250000E+01  0.000000E+00
  3.906250E-01  1.289062E+01  0.000000E+00
  3.906250E-01  1.328125E+01  0.000000E+00
  3.906250E-01  1.367188E+01  0.000000E+00
  3.906250E-01  1.406250E+01  0.000000E+00
  3.906250E-01  1.445312E+01  0.000000E+00
  3.906250E-01  1.484375E+01  0.000000E+00
  3.906250E-01  1.523438E+01  0.000000E+00
  3.906250E-01  1.562500E+01  0.000000E+00
  3.906250E-01  1.601562E+01  0.000000E+00
  3.906250E-01  1.640625E+01  0.000000E+00
  3.906250E-01  1.679688E+01  0.000000E+00
  3.906250E-01  1.718750E+01  0.000000E+00
  3.906250E-01  1.757812E+01  0.000000E+00
  3.906250E-01  1.796875E+01  0.000000E+00
  3.906250E-01  1.835938E+01  0.000000E+00
  3.906250E-01  1.875000E+01  0.000000E+00
  3.906250E-01  1.914062E+01  0.000000E+00
  3.906250E-01  1.953125E+01  0.000000E+00
  3.906250E-01  1.992188E+01  0.000000E+00
  3.906250E-01  2.031250E+01  0.000000E+00
  3.906250E-01  2.070312E+01  0.000000E+00
  3.906250E-01  2.109375E+01  0.000000E+00
  3.906250E-01  2.148438E+01  0.000000E+00
  3.906250E-01  2.187500E+01  0.000000E+00
  3.906250E-01  2.226562E+01  0.000000E+00
  3.906250E-01  2.265625E+01  0.000000E+00
  3.906250E-01  2.304688E+01  0.000000E+00
  3.906250E-01  2.343750E+01  0.000000E+00
  3.906250E-01  2.382812E+01  0.000000E+00
  3.906250E-01  2.421875E+01  0.000000E+00
  3.906250E-01  2.460938E+01  0.000000E+00
  7.812500E-01  0.000000E+00  0.000000E+00
  7.812500E-01  3.906250E-01  0.000000E+00
  7.812500E-01  7.812500E-01  0.000000E+00
  7.812500E-01  1.171875E+00  0.000000E+00
  7.812500E-01  1.562500E+00  0.000000E+00
  7.812500E-01  1.953125E+00  0.000000E+00
  7.812500E-01  2.343750E+00  0.000000E+00
  7.812500E-01  2.734375E+00  0.000000E+00
  7.812500E-01  3.125000E+00  0.000000E+00
  7.812500E-01  3.515625E+00  0.000000E+00
  7.812500E-01  3.906250E+00  0.000000E+00
  7.812500E-01  4.296875E+00  0.000000E+00
  7.812500E-01  4.687500E+00  0.000000E+00
  7.812500E-01  5.078125E+00  0.000000E+00
  7.812500E-01  5.468750E+00  0.000000E+00
  7.812500E-01  5.859375E+00  0.000000E+00
  7.812500E-01  6.250000E+00  0.000000E+00
  7.812500E-01  6.640625E+00  0.000000E+00
  7.812500E-01  7.031250E+00  0.000000E+00
  7.812500E-01  7.421875E+00  0.000000E+00
  7.812500E-01  7.812500E+00  0.000000E+00
  7.812500E-01  8.203125E+00  0.000000E+00
  7.812500E-01  8.593750E+00  0.000000E+00
  7.812500E-01  8.984375E+00  0.000000E+00
  7.812500E-01  9.375000E+00  0.000000E+00
  7.812500E-01  9.765625E+00  0.000000E+00
  7.812500E-01  1.015625E+01  0.000000E+00
  7.812500E-01  1.054688E+01  0.000000E+00
  7.812500E-01  1.093750E+01  0.000000E+00
  7.812500E-01  1.132812E+01  0.000000E+00
  7.812500E-01  1.171875E+01  0.000000E+00
  7.812500E-01  1.210938E+01  0.000000E+00
  7.812500E-01  1.250000E+01  0.000000E+00
  7.812500E-01  1.289062E+01  0.000000E+00
  7.812500E-01  1.328125E+01  0.000000E+00
  7.812500E-01  1.367188E+01  0.000000E+00
  7.812500E-01  1.406250E+01  0.000000E+00
  7.812500E-01  1.445312E+01  0.000000E+00
  7.812500E-01  1.484375E+01  0.000000E+00
  7.812500E-01  1.523438E+01  0.000000E+00
  7.812500E-01  1.562500E+01  0.000000E+00
  7.812500E-01  1.601562E+01  0.000000E+00
  7.812500E-01  1.640625E+01  0.000000E+00
  7.812500E-01  1.679688E+01  0.000000E+00
  7.812500E-01  1.718750E+01  0.000000E+00
  7.812500E-01  1.757812E+01  0.000000E+00
  7.812500E-01  1.796875E+01  0.000000E+00
  7.812500E-01  1.835938E+01  0.000000E+00
  7.812500E-01  1.875000E+01  0.000000E+00
  7.812500E-01  1.914062E+01  0.000000E+00
  7.812500E-01  1.953125E+01  0.000000E+00
  7.812500E-01  1.992188E+01  0.000000E+00
  7.812500E-01  2.031250E+01  0.000000E+00
  7.812500E-01  2.070312E+01  0.000000E+00
  7.812500E-01  2.109375E+01  0.000000E+00
  7.812500E-01  2.148438E+01  0.000000E+00
  7.812500E-01  2.187500E+01  0.000000E+00
  7.812500E-01  2.226562E+01  0.000000E+00
  7.812500E-01  2.265625E+01  0.000000E+00
  7.812500E-01  2.304688E+01  0.000000E+00
  7.812500E-01  2.343750E+01  0.000000E+00
  7.812500E-01  2.382812E+01  0.000000E+00
  7.812500E-01  2.421875E+01  0.000000E+00
  7.812500E-01  2.460938E+01  0.000000E+00
  1.171875E+00  0.000000E+00  0.000000E+00
  1.171875E+00  3.906250E-01  0.000000E+00
  1.171875E+00  7.812500E-01  0.000000E+00
  1.171875E+00  1.171875E+00  0.000000E+00
  1.171875E+00  1.562500E+00  0.000000E+00
  1.171875E+00  1.953125E+00  0.000000E+00
  1.171875E+00  2.343750E+00  0.000000E+00
  1.171875E+00  2.734375E+00  0.000000E+00
  1.171875E+00  3.125000E+00  0.000000E+00
  1.171875E+00  3.515625E+00  0.000000E+00
  1.171875E+00  3.906250E+00  0.000000E+00
  1.171875E+00  4.296875E+00  0.000000E+00
  1.171875E+00  4.687500E+00  0.000000E+00
  1.171875E+00  5.078125E+00  0.000000E+00
  1.171875E+00  5.468750E+00  0.000000E+00
  1.171875E+00  5.859375E+00  0.000000E+00
  1.171875E+00  6.250000E+00  0.000000E+00
  1.171875E+00  6.640625E+00  0.000000E+00
  1.171875E+00  7.031250E+00  0.000000E+00
  1.171875E+00  7.421875E+00  0.000000E+00
  1.171875E+00  7.812500E+00  0.000000E+00
  1.171875E+00  8.203125E+00  0.000000E+00
  1.171875E+00  8.593750E+00  0.000000E+00
  1.171875E+00  8.984375E+00  0.000000E+00
  1.171875E+00  9.375000E+00  0.000000E+00
  1.171875E+00  9.765625E+00  0.000000E+00
  1.171875E+00  1.015625E+01  0.000000E+00
  1.171875E+00  1.054688E+01  0.000000E+00
  1.171875E+00  1.093750E+01  0.000000E+00
  1.171875E+00  1.132812E+01  0.000000E+00
  1.171875E+00  1.171875E+01  0.000000E+00
  1.171875E+00  1.210938E+01  0.000000E+00
  1.171875E+00  1.250000E+01  0.000000E+00
  1.171875E+00  1.289062E+01  0.000000E+00
  1.171875E+00  1.328125E+01  0.000000E+00
  1.171875E+00  1.367188E+01  0.000000E+00
  1.171875E+00  1.406250E+01  0.000000E+00
  1.171875E+00  1.445312E+01  0.000000E+00
[...]
POINT_DATA   4096
SCALARS CON  float  1
LOOKUP_TABLE default
  4.714901E-01
  4.726062E-01
  4.795811E-01
  4.756568E-01
  4.759911E-01
  4.684379E-01
  4.706292E-01
  4.686810E-01
  4.754898E-01
  4.734722E-01
  4.757779E-01
  4.683519E-01
  4.682592E-01
  4.629658E-01
  4.679265E-01
  4.676540E-01
  4.749532E-01
  4.731862E-01
  4.762404E-01
  4.698543E-01
  4.702009E-01
  4.636822E-01
  4.651752E-01
  4.596133E-01
  4.616239E-01
  4.574908E-01
  4.630111E-01
  4.637434E-01
  4.726892E-01
  4.724588E-01
  4.761453E-01
  4.697911E-01
  4.708537E-01
  4.668090E-01
  4.723069E-01
  4.705166E-01
  4.739681E-01
  4.675265E-01
  4.674379E-01
  4.608886E-01
  4.632911E-01
  4.593486E-01
  4.625477E-01
  4.577586E-01
  4.603523E-01
  4.574143E-01
  4.650062E-01
  4.683553E-01
  4.795202E-01
  4.795841E-01
  4.806254E-01
  4.689993E-01
  4.643621E-01
  4.573792E-01
  4.651899E-01
  4.715476E-01
  4.859987E-01
  4.881381E-01
  4.905396E-01
  4.801517E-01
  4.757921E-01
  4.659385E-01
  4.668545E-01
  4.640709E-01
  4.719947E-01
  4.748306E-01
  4.833185E-01
  4.818352E-01
  4.811994E-01
  4.713526E-01
  4.686227E-01
  4.638192E-01
  4.690085E-01
  4.697705E-01
  4.755616E-01
  4.728031E-01
  4.739099E-01
  4.679996E-01
  4.687676E-01
  4.653503E-01
  4.701336E-01
  4.699051E-01
  4.747920E-01
  4.710881E-01
  4.711576E-01
  4.646077E-01
  4.654072E-01
  4.620497E-01
  4.658274E-01
  4.636093E-01
  4.672153E-01
  4.651679E-01
  4.701153E-01
  4.696033E-01
  4.746264E-01
  4.719565E-01
  4.735778E-01
  4.680394E-01
  4.685293E-01
  4.637986E-01
  4.663463E-01
  4.638322E-01
  4.675363E-01
  4.642852E-01
  4.655345E-01
  4.594755E-01
  4.592152E-01
  4.538751E-01
  4.563397E-01
  4.552941E-01
  4.631899E-01
  4.675071E-01
  4.779338E-01
  4.785272E-01
  4.791137E-01
  4.690857E-01
  4.658150E-01
  4.623558E-01
  4.722520E-01
  4.801019E-01
  4.918105E-01
  4.902487E-01
  4.877424E-01
  4.761064E-01
  4.719545E-01
  4.649310E-01
  4.668278E-01
  4.651177E-01
  4.638388E-01
  4.738491E-01
  4.838356E-01
  4.853106E-01
  4.815042E-01
  4.719818E-01
  4.660012E-01
  4.627774E-01
  4.661349E-01
  4.695690E-01
  4.741954E-01
  4.742931E-01
  4.739096E-01
  4.703131E-01
  4.691140E-01
  4.673708E-01
  4.691615E-01
  4.696837E-01
  4.718202E-01
  4.708142E-01
  4.707424E-01
  4.682188E-01
  4.677938E-01
  4.655963E-01
  4.655412E-01
  4.637566E-01
  4.645828E-01
  4.641865E-01
  4.660979E-01
  4.654367E-01
  4.657152E-01
  4.634417E-01
  4.638377E-01
  4.637707E-01
  4.668935E-01
  4.678293E-01
  4.692852E-01
  4.670330E-01
  4.658174E-01
  4.624074E-01
  4.609805E-01
  4.574071E-01
  4.558154E-01
  4.529826E-01
  4.539796E-01
  4.557809E-01
  4.624815E-01
  4.689689E-01
  4.766836E-01
  4.785763E-01
  4.771821E-01
  4.700531E-01
  4.653559E-01
  4.632994E-01
  4.695846E-01
  4.781994E-01
  4.881102E-01
  4.901457E-01
  4.865251E-01
  4.754089E-01
  4.651183E-01
  4.554997E-01
  4.529729E-01
  4.546179E-01
  4.636513E-01
  4.746164E-01
  4.813979E-01
  4.856750E-01
  4.787981E-01
  4.702271E-01
  4.590872E-01
  4.563461E-01
  4.567097E-01
  4.646625E-01
  4.702514E-01
  4.766751E-01
  4.756694E-01
  4.742236E-01
  4.679984E-01
  4.663203E-01
  4.645594E-01
  4.690157E-01
  4.710755E-01
  4.747416E-01
  4.724426E-01
  4.717706E-01
  4.681237E-01
  4.690727E-01
  4.675577E-01
  4.687507E-01
  4.654570E-01
  4.648479E-01
  4.619026E-01
  4.640658E-01
  4.644377E-01
  4.679187E-01
  4.664407E-01
  4.661618E-01
  4.617694E-01
  4.616847E-01
  4.607510E-01
  4.651239E-01
  4.664039E-01
  4.688314E-01
  4.649646E-01
  4.625002E-01
  4.573673E-01
  4.579286E-01
  4.580459E-01
  4.632359E-01
  4.658475E-01
  4.715012E-01
  4.726837E-01
  4.746418E-01
  4.702233E-01
  4.673303E-01
  4.626780E-01
  4.657392E-01
  4.704254E-01
  4.801735E-01
  4.836144E-01
  4.840973E-01
  4.757401E-01
  4.687040E-01
  4.599121E-01
  4.573418E-01
  4.547310E-01
  4.588227E-01
  4.594105E-01
  4.732176E-01
  4.772999E-01
  4.826187E-01
  4.729211E-01
  4.671515E-01
  4.552896E-01
  4.560012E-01
  4.546358E-01
  4.642242E-01
  4.666083E-01
  4.743690E-01
  4.710752E-01
  4.727804E-01
  4.661269E-01
  4.683221E-01
  4.650739E-01
  4.712204E-01
  4.702356E-01
  4.759700E-01
  4.722890E-01
  4.746130E-01
  4.682596E-01
  4.692129E-01
  4.627410E-01
  4.644203E-01
  4.593117E-01
  4.627080E-01
  4.593215E-01
  4.639344E-01
  4.609219E-01
  4.651929E-01
  4.615870E-01
  4.656841E-01
  4.626170E-01
  4.675995E-01
  4.650552E-01
  4.696762E-01
  4.657365E-01
  4.682002E-01
  4.620559E-01
  4.635256E-01
  4.587560E-01
  4.637684E-01
  4.631384E-01
  4.707464E-01
  4.698227E-01
  4.748162E-01
  4.703547E-01
  4.720127E-01
  4.648978E-01
  4.650883E-01
  4.588199E-01
  4.627716E-01
  4.623895E-01
  4.717151E-01
  4.728768E-01
  4.784878E-01
  4.720460E-01
  4.697804E-01
  4.585885E-01
  4.561757E-01
  4.496971E-01
  4.557872E-01
  4.646915E-01
  4.735989E-01
  4.734546E-01
  4.785042E-01
  4.691705E-01
  4.650438E-01
  4.526590E-01
  4.532025E-01
  4.505522E-01
  4.608217E-01
  4.635965E-01
  4.732444E-01
  4.701234E-01
  4.722156E-01
  4.640915E-01
  4.663627E-01
  4.633391E-01
  4.722485E-01
  4.729572E-01
  4.801669E-01
  4.746427E-01
  4.751220E-01
  4.661731E-01
  4.673024E-01
  4.611579E-01
  4.644766E-01
  4.589959E-01
  4.626269E-01
  4.590268E-01
  4.665149E-01
  4.666886E-01
  4.747777E-01
  4.707246E-01
  4.718733E-01
  4.627209E-01
  4.641780E-01
  4.606479E-01
  4.689460E-01
  4.684912E-01
  4.740476E-01
  4.674149E-01
  4.685971E-01
  4.631602E-01
  4.701374E-01
  4.704630E-01
  4.786190E-01
  4.744995E-01
  4.759465E-01
  4.670242E-01
  4.671551E-01
  4.594075E-01
  4.616264E-01
  4.568115E-01
  4.630115E-01
  4.622440E-01
  4.702647E-01
  4.673821E-01
  4.706394E-01
  4.636753E-01
  4.660958E-01
  4.610951E-01
  4.656557E-01
  4.614797E-01
  4.665854E-01
  4.633603E-01
  4.705097E-01
  4.702955E-01
  4.740172E-01
  4.672115E-01
  4.652221E-01
  4.571887E-01
  4.587933E-01
  4.569461E-01
  4.640234E-01
  4.644840E-01
  4.701109E-01
  4.665280E-01
  4.682902E-01
  4.635910E-01
  4.676882E-01
  4.673507E-01
  4.751747E-01
  4.755791E-01
  4.805057E-01
  4.753813E-01
  4.744823E-01
  4.654379E-01
  4.635067E-01
  4.563456E-01
  4.582002E-01
  4.555344E-01
  4.613692E-01
  4.613950E-01
  4.683937E-01
  4.679656E-01
  4.731183E-01
  4.699448E-01
  4.727216E-01
  4.688048E-01
  4.726074E-01
  4.702511E-01
  4.743881E-01
  4.702659E-01
  4.713545E-01
  4.649980E-01
  4.667372E-01
  4.644415E-01
  4.717001E-01
  4.730202E-01
  4.793884E-01
  4.753052E-01
  4.749802E-01
  4.667152E-01
  4.661404E-01
  4.602942E-01
  4.623847E-01
  4.582912E-01
  4.614933E-01
  4.586463E-01
  4.633800E-01
  4.617746E-01
  4.669452E-01
  4.647959E-01
  4.686145E-01
  4.645449E-01
  4.664150E-01
  4.614677E-01
  4.646828E-01
  4.671635E-01
  4.679656E-01
  4.678159E-01
  4.708164E-01
  4.690904E-01
  4.679295E-01
  4.629432E-01
  4.620999E-01
  4.610629E-01
  4.653823E-01
  4.676045E-01
  4.713432E-01
  4.694868E-01
  4.683779E-01
  4.643694E-01
  4.657514E-01
  4.679350E-01
  4.755300E-01
  4.795537E-01
  4.825992E-01
  4.776736E-01
  4.723567E-01
  4.640231E-01
  4.610484E-01
  4.583415E-01
  4.606929E-01
  4.609720E-01
  4.643305E-01
  4.654736E-01
  4.708208E-01
  4.740909E-01
  4.791739E-01
  4.781873E-01
  4.767266E-01
  4.710695E-01
  4.700170E-01
  4.692544E-01
  4.734057E-01
  4.738093E-01
  4.742244E-01
  4.693603E-01
  4.677656E-01
  4.662873E-01
  4.710330E-01
  4.738424E-01
  4.773195E-01
  4.741511E-01
  4.714581E-01
  4.659427E-01
  4.650064E-01
  4.627836E-01
  4.642645E-01
  4.633240E-01
  4.657982E-01
  4.655552E-01
  4.673485E-01
  4.646714E-01
  4.640592E-01
  4.616955E-01
  4.648239E-01
  4.670757E-01
  4.718623E-01
  4.712094E-01
  4.708952E-01
  4.615806E-01
  4.625059E-01
  4.653310E-01
  4.683361E-01
  4.707676E-01
  4.715197E-01
  4.714598E-01
  4.709577E-01
  4.712765E-01
  4.718902E-01
  4.725389E-01
  4.717104E-01
  4.696839E-01
  4.669717E-01
  4.658868E-01
  4.672282E-01
  4.713939E-01
  4.762156E-01
  4.798406E-01
  4.798794E-01
  4.764825E-01
  4.703896E-01
  4.642537E-01
  4.596115E-01
  4.582648E-01
  4.597867E-01
  4.635872E-01
  4.673968E-01
  4.703326E-01
  4.714551E-01
  4.717599E-01
  4.715009E-01
  4.718521E-01
  4.727457E-01
  4.747765E-01
  4.768009E-01
  4.780506E-01
  4.767736E-01
  4.732996E-01
  4.683311E-01
  4.644357E-01
  4.627770E-01
  4.642124E-01
  4.670636E-01
  4.699184E-01
  4.707680E-01
  4.700499E-01
  4.684826E-01
  4.679609E-01
  4.683230E-01
  4.693164E-01
  4.694076E-01
  4.688330E-01
  4.675953E-01
  4.669013E-01
  4.664778E-01
  4.666977E-01
  4.668738E-01
  4.674803E-01
  4.678140E-01
  4.679000E-01
  4.666758E-01
  4.647015E-01
  4.623910E-01
  4.619193E-01
  4.600962E-01
  4.630933E-01
  4.672891E-01
  4.725691E-01
  4.742778E-01
  4.745946E-01
  4.724968E-01
  4.723719E-01
  4.725483E-01
  4.746894E-01
  4.745245E-01
  4.732982E-01
  4.689804E-01
  4.661746E-01
  4.648508E-01
  4.685675E-01
  4.735154E-01
  4.789201E-01
  4.790979E-01
  4.756951E-01
  4.683388E-01
  4.631377E-01
  4.604064E-01
  4.631345E-01
  4.671304E-01
  4.721628E-01
  4.737780E-01
  4.743865E-01
  4.729157E-01
  4.732056E-01
  4.728375E-01
  4.734178E-01
  4.719225E-01
  4.714361E-01
  4.705602E-01
  4.720478E-01
  4.722988E-01
  4.722366E-01
  4.688837E-01
  4.659601E-01
  4.630222E-01
  4.637493E-01
  4.650635E-01
  4.676129E-01
  4.675279E-01
  4.675868E-01
  4.668124E-01
  4.687062E-01
  4.702005E-01
  4.722598E-01
  4.716483E-01
  4.717007E-01
  4.713200E-01
  4.732195E-01
  4.735338E-01
  4.732189E-01
  4.698911E-01
  4.679263E-01
  4.666973E-01
  4.686331E-01
  4.692328E-01
  4.688725E-01
  4.649094E-01
  4.560940E-01
  4.575986E-01
  4.613198E-01
  4.666286E-01
  4.714816E-01
  4.748891E-01
  4.758656E-01
  4.755236E-01
  4.746242E-01
  4.743758E-01
  4.740183E-01
  4.730382E-01
  4.704427E-01
  4.674071E-01
  4.651301E-01
  4.654533E-01
  4.680232E-01
  4.719688E-01
  4.747786E-01
  4.752029E-01
  4.723651E-01
  4.678426E-01
  4.632741E-01
  4.612507E-01
  4.625784E-01
  4.673454E-01
  4.729609E-01
  4.769312E-01
  4.768033E-01
  4.732796E-01
  4.680860E-01
  4.643506E-01
  4.633639E-01
  4.657733E-01
  4.698327E-01
  4.737230E-01
  4.747662E-01
  4.725154E-01
  4.675629E-01
  4.627303E-01
  4.597449E-01
  4.597802E-01
  4.614611E-01
  4.635756E-01
  4.645586E-01
  4.650479E-01
  4.657166E-01
  4.679333E-01
  4.709374E-01
  4.736842E-01
  4.741638E-01
  4.725883E-01
  4.698696E-01
  4.684169E-01
  4.688990E-01
  4.713905E-01
  4.740071E-01
  4.757552E-01
  4.754265E-01
  4.734727E-01
  4.698125E-01
  4.654799E-01
  4.608571E-01
  4.575171E-01
  4.591300E-01
  4.593778E-01
  4.608111E-01
  4.668303E-01
  4.703938E-01
  4.737622E-01
  4.718490E-01
  4.706798E-01
  4.678923E-01
  4.692695E-01
  4.696989E-01
  4.718939E-01
  4.697111E-01
  4.677083E-01
  4.630978E-01
  4.627776E-01
  4.635768E-01
  4.692806E-01
  4.727414E-01
  4.756147E-01
  4.721429E-01
  4.683270E-01
  4.627298E-01
  4.626895E-01
  4.645476E-01
  4.713342E-01
  4.755556E-01
  4.791081E-01
  4.766827E-01
  4.742851E-01
  4.695188E-01
  4.682112E-01
  4.657640E-01
  4.661366E-01
  4.645866E-01
  4.658308E-01
  4.652978E-01
  4.669246E-01
  4.654299E-01
  4.652482E-01
  4.626251E-01
  4.631509E-01
  4.627295E-01
  4.653086E-01
  4.653882E-01
  4.671714E-01
  4.667509E-01
  4.694186E-01
  4.703307E-01
  4.725774E-01
  4.703329E-01
  4.686444E-01
  4.652058E-01
  4.667646E-01
  4.690638E-01
  4.746595E-01
  4.763675E-01
  4.775747E-01
  4.746207E-01
  4.737762E-01
  4.711739E-01
  4.706384E-01
  4.665894E-01
  4.637155E-01
  4.573626E-01
  4.605113E-01
  4.616491E-01
  4.667966E-01
  4.682208E-01
  4.717162E-01
  4.700043E-01
  4.703819E-01
  4.671536E-01
  4.679667E-01
  4.659885E-01
  4.672657E-01
  4.644483E-01
  4.646466E-01
  4.621149E-01
  4.645119E-01
  4.651606E-01
  4.700980E-01
  4.713523E-01
  4.745193E-01
  4.719572E-01
  4.705421E-01
  4.646246E-01
  4.630056E-01
  4.608619E-01
  4.655926E-01
  4.690373E-01
  4.750693E-01
  4.742245E-01
  4.727838E-01
  4.657944E-01
  4.629965E-01
  4.597721E-01
  4.631958E-01
  4.650402E-01
  4.697379E-01
  4.686406E-01
  4.682750E-01
  4.632198E-01
  4.622475E-01
  4.598734E-01
  4.627718E-01
  4.630681E-01
  4.663662E-01
  4.655273E-01
  4.678570E-01
  4.672615E-01
  4.705561E-01
  4.700498E-01
  4.713639E-01
  4.672532E-01
  4.654191E-01
  4.608980E-01
  4.621270E-01
  4.629585E-01
  4.693994E-01
  4.729123E-01
  4.783397E-01
  4.774633E-01
  4.768404E-01
  4.704790E-01
  4.667602E-01
  4.604917E-01
  4.595094E-01
  4.644932E-01
  4.648592E-01
  4.640464E-01
  4.672323E-01
  4.678813E-01
  4.698565E-01
  4.672858E-01
  4.663070E-01
  4.631019E-01
  4.639929E-01
  4.634908E-01
  4.657921E-01
  4.645382E-01
  4.649254E-01
  4.625972E-01
  4.642180E-01
  4.653187E-01
  4.708195E-01
  4.737989E-01
  4.775295E-01
  4.752954E-01
  4.726995E-01
  4.662312E-01
  4.636349E-01
  4.612480E-01
  4.643788E-01
  4.662657E-01
  4.702429E-01
  4.697816E-01
  4.704232E-01
  4.679028E-01
  4.683330E-01
  4.663224E-01
  4.666870E-01
  4.640278E-01
  4.642426E-01
  4.627556E-01
  4.650010E-01
  4.650165E-01
  4.672620E-01
  4.661394E-01
  4.674141E-01
  4.664247E-01
  4.686403E-01
  4.682892E-01
  4.701298E-01
  4.686573E-01
  4.693286E-01
  4.668286E-01
  4.662903E-01
  4.625297E-01
  4.618078E-01
  4.602433E-01
  4.638991E-01
  4.667424E-01
  4.720593E-01
  4.725786E-01
  4.731549E-01
  4.696201E-01
  4.690362E-01
  4.669855E-01
  4.684234E-01
  4.669901E-01
  4.673356E-01
  4.663185E-01
  4.680846E-01
  4.673449E-01
  4.674228E-01
  4.669338E-01
  4.682654E-01
  4.683809E-01
  4.689265E-01
  4.674204E-01
  4.664979E-01
  4.642318E-01
  4.633391E-01
  4.619972E-01
  4.631029E-01
  4.645644E-01
  4.682306E-01
  4.708290E-01
  4.739888E-01
  4.752655E-01
  4.770192E-01
  4.763471E-01
  4.746149E-01
  4.691335E-01
  4.635050E-01
  4.579146E-01
  4.568546E-01
  4.582977E-01
  4.626711E-01
  4.648988E-01
  4.657118E-01
  4.634293E-01
  4.625303E-01
  4.624841E-01
  4.657204E-01
  4.683946E-01
  4.708942E-01
  4.699095E-01
  4.683496E-01
  4.654052E-01
  4.647351E-01
  4.644034E-01
  4.662561E-01
  4.671732E-01
  4.689045E-01
  4.688920E-01
  4.694289E-01
  4.681358E-01
  4.673357E-01
  4.648961E-01
  4.636691E-01
  4.620020E-01
  4.626668E-01
  4.632472E-01
  4.654905E-01
  4.664285E-01
  4.680229E-01
  4.678171E-01
  4.679888E-01
  4.659753E-01
  4.642480E-01
  4.613530E-01
  4.609117E-01
  4.613432E-01
  4.644240E-01
  4.760521E-01
  4.741790E-01
  4.709556E-01
  4.681482E-01
  4.670066E-01
  4.668924E-01
  4.671916E-01
  4.670069E-01
  4.665704E-01
  4.658070E-01
  4.651694E-01
  4.644806E-01
  4.642724E-01
  4.646416E-01
  4.661532E-01
  4.684427E-01
  4.713832E-01
  4.741506E-01
  4.765315E-01
  4.776850E-01
  4.772308E-01
  4.743936E-01
  4.697404E-01
  4.642687E-01
  4.599997E-01
  4.578113E-01
  4.579843E-01
  4.592980E-01
  4.610431E-01
  4.626270E-01
  4.646607E-01
  4.670159E-01
  4.693486E-01
  4.702622E-01
  4.694975E-01
  4.674786E-01
  4.660116E-01
  4.658518E-01
  4.670382E-01
  4.681627E-01
  4.687158E-01
  4.686551E-01
  4.690975E-01
  4.700558E-01
  4.710377E-01
  4.704962E-01
  4.681659E-01
  4.644944E-01
  4.613139E-01
  4.597393E-01
  4.607084E-01
  4.637263E-01
  4.680828E-01
  4.718546E-01
  4.735369E-01
  4.717012E-01
  4.669151E-01
  4.606814E-01
  4.558341E-01
  4.542153E-01
  4.568863E-01
  4.626502E-01
  4.695039E-01
  4.744565E-01
  4.779597E-01
  4.772822E-01
  4.734990E-01
  4.681868E-01
  4.655291E-01
  4.651530E-01
  4.674309E-01
  4.691438E-01
  4.701219E-01
  4.684920E-01
  4.661644E-01
  4.631044E-01
  4.622126E-01
  4.631357E-01
  4.669227E-01
  4.705557E-01
  4.734248E-01
  4.734463E-01
  4.730259E-01
  4.723901E-01
  4.732263E-01
  4.727177E-01
  4.704057E-01
  4.647752E-01
  4.592615E-01
  4.552720E-01
  4.554384E-01
  4.573748E-01
  4.601115E-01
  4.607723E-01
  4.612163E-01
  4.619362E-01
  4.655116E-01
  4.698671E-01
  4.741071E-01
  4.747882E-01
  4.729085E-01
  4.685742E-01
  4.652575E-01
  4.630412E-01
  4.635543E-01
  4.648974E-01
  4.675652E-01
  4.692792E-01
  4.704784E-01
  4.691147E-01
  4.665590E-01
  4.624549E-01
  4.598763E-01
  4.591060E-01
  4.620934E-01
  4.665178E-01
  4.714403E-01
  4.731137E-01
  4.719000E-01
  4.673532E-01
  4.627909E-01
  4.584080E-01
  4.561054E-01
  4.547045E-01
  4.561091E-01
  4.597295E-01
  4.666318E-01
  4.733074E-01
  4.839001E-01
  4.795444E-01
  4.743170E-01
  4.677657E-01
  4.651115E-01
  4.631889E-01
  4.644244E-01
  4.643766E-01
  4.656516E-01
  4.646346E-01
  4.648174E-01
  4.633220E-01
  4.641050E-01
  4.642067E-01
  4.667335E-01
  4.675271E-01
  4.691448E-01
  4.681289E-01
  4.685411E-01
  4.678417E-01
  4.694508E-01
  4.691659E-01
  4.693114E-01
  4.663333E-01
  4.645037E-01
  4.616906E-01
  4.617698E-01
  4.610872E-01
  4.625091E-01
  4.628212E-01
  4.659633E-01
  4.686924E-01
  4.732241E-01
  4.743006E-01
  4.741176E-01
  4.699699E-01
  4.672726E-01
  4.643737E-01
  4.648258E-01
  4.643727E-01
  4.656574E-01
  4.655987E-01
  4.681229E-01
  4.695578E-01
  4.716898E-01
  4.694714E-01
  4.661113E-01
  4.600689E-01
  4.573285E-01
  4.564093E-01
  4.607860E-01
  4.657069E-01
  4.721822E-01
  4.745716E-01
  4.749522E-01
  4.701233E-01
  4.649532E-01
  4.582958E-01
  4.556457E-01
  4.551557E-01
  4.605184E-01
  4.673725E-01
  4.766215E-01
  4.817729E-01
  4.783839E-01
  4.754546E-01
  4.731179E-01
  4.660907E-01
  4.643013E-01
  4.613562E-01
  4.640702E-01
  4.635180E-01
  4.658561E-01
  4.631924E-01
  4.634621E-01
  4.603252E-01
  4.623426E-01
  4.624727E-01
  4.672538E-01
  4.672905E-01
  4.684637E-01
  4.635609E-01
  4.622927E-01
  4.597454E-01
  4.640208E-01
  4.658727E-01
  4.699156E-01
  4.672500E-01
  4.665177E-01
  4.627051E-01
  4.647202E-01
  4.644344E-01
  4.674925E-01
  4.654621E-01
  4.667200E-01
  4.656217E-01
  4.704341E-01
  4.724543E-01
  4.767832E-01
  4.741416E-01
  4.721806E-01
  4.651771E-01
  4.627472E-01
  4.588626E-01
  4.612866E-01
  4.620630E-01
  4.674956E-01
  4.685919E-01
  4.713289E-01
  4.674573E-01
  4.650987E-01
  4.586411E-01
  4.577123E-01
  4.563234E-01
  4.617502E-01
  4.648725E-01
  4.706457E-01
  4.698377E-01
  4.701105E-01
  4.658125E-01
  4.663642E-01
  4.647969E-01
  4.675670E-01
  4.660976E-01
  4.680424E-01
  4.672622E-01
  4.721052E-01
  4.741157E-01
  4.764317E-01
  4.709517E-01
  4.711792E-01
  4.650165E-01
  4.658888E-01
  4.608856E-01
  4.626740E-01
  4.583312E-01
  4.608764E-01
  4.576965E-01
  4.617675E-01
  4.601989E-01
  4.655488E-01
  4.643222E-01
  4.685149E-01
  4.644612E-01
  4.651406E-01
  4.587618E-01
  4.598855E-01
  4.569315E-01
  4.627382E-01
  4.632699E-01
  4.697761E-01
  4.684123E-01
  4.723543E-01
  4.693966E-01
  4.728157E-01
  4.694491E-01
  4.722028E-01
  4.688226E-01
  4.731892E-01
  4.723288E-01
  4.776666E-01
  4.741877E-01
  4.741411E-01
  4.659384E-01
  4.650218E-01
  4.600707E-01
  4.637103E-01
  4.618349E-01
  4.665273E-01
  4.651504E-01
  4.709391E-01
  4.702199E-01
  4.741592E-01
  4.684285E-01
  4.665752E-01
  4.580156E-01
  4.581125E-01
  4.551638E-01
  4.613283E-01
  4.621527E-01
  4.689469E-01
  4.680580E-01
  4.725487E-01
  4.700243E-01
  4.738637E-01
  4.711966E-01
  4.748516E-01
  4.718158E-01
  4.753489E-01
  4.727671E-01
  4.768869E-01
  4.740353E-01
  4.667157E-01
  4.652056E-01
  4.696593E-01
  4.652355E-01
  4.673571E-01
  4.624082E-01
  4.651880E-01
  4.608964E-01
  4.637080E-01
  4.591916E-01
  4.623135E-01
  4.592419E-01
  4.647815E-01
  4.639929E-01
  4.700293E-01
  4.666158E-01
  4.675431E-01
  4.593985E-01
  4.593526E-01
  4.553481E-01
  4.621655E-01
  4.633811E-01
  4.707049E-01
  4.682001E-01
  4.713788E-01
  4.676166E-01
  4.724018E-01
  4.702556E-01
  4.742154E-01
  4.692291E-01
  4.710890E-01
  4.668663E-01
  4.716007E-01
  4.695848E-01
  4.737187E-01
  4.684923E-01
  4.689387E-01
  4.618583E-01
  4.631888E-01
  4.593646E-01
  4.650568E-01
  4.652031E-01
  4.729960E-01
  4.720819E-01
  4.756684E-01
  4.689919E-01
  4.680505E-01
  4.603597E-01
  4.620271E-01