# vtk DataFile Version 2.0
title
ASCII
DATASET STRUCTURED_GRID
DIMENSIONS   64   64    1
POINTS   4096  float
  0.000000E+00  0.000000E+00  0.000000E+00
  0.000000E+00  3.906250E-01  0.000000E+00
  0.000000E+00  7.812500E-01  0.000000E+00
  0.000000E+00  1.171875E+00  0.000000E+00
  0.000000E+00  1.562500E+00  0.000000E+00
  0.000000E+00  1.953125E+00  0.000000E+00
  0.000000E+00  2.343750E+00  0.000000E+00
  0.000000E+00  2.734375E+00  0.000000E+00
  0.000000E+00  3.125000E+00  0.000000E+00
  0.000000E+00  3.515625E+00  0.000000E+00
  0.000000E+00  3.906250E+00  0.000000E+00
  0.000000E+00  4.296875E+00  0.000000E+00
  0.000000E+00  4.687500E+00  0.000000E+00
  0.000000E+00  5.078125E+00  0.000000E+00
  0.000000E+00  5.468750E+00  0.000000E+00
  0.000000E+00  5.859375E+00  0.000000E+00
  0.000000E+00  6.250000E+00  0.000000E+00
  0.000000E+00  6.640625E+00  0.000000E+00
  0.000000E+00  7.031250E+00  0.000000E+00
  0.000000E+00  7.421875E+00  0.000000E+00
  0.000000E+00  7.812500E+00  0.000000E+00
  0.000000E+00  8.203125E+00  0.000000E+00
  0.000000E+00  8.593750E+00  0.000000E+00
  0.000000E+00  8.984375E+00  0.000000E+00
  0.000000E+00  9.375000E+00  0.000000E+00
  0.000000E+00  9.765625E+00  0.000000E+00
  0.000000E+00  1.015625E+01  0.000000E+00
  0.000000E+00  1.054688E+01  0.000000E+00
  0.000000E+00  1.093750E+01  0.000000E+00
  0.000000E+00  1.132812E+01  0.000000E+00
  0.000000E+00  1.171875E+01  0.000000E+00
  0.000000E+00  1.210938E+01  0.000000E+00
  0.000000E+00  1.250000E+01  0.000000E+00
  0.000000E+00  1.289062E+01  0.000000E+00
  0.000000E+00  1.328125E+01  0.000000E+00
  0.000000E+00  1.367188E+01  0.000000E+00
  0.000000E+00  1.406250E+01  0.000000E+00
  0.000000E+00  1.445312E+01  0.000000E+00
  0.000000E+00  1.484375E+01  0.000000E+00
  0.000000E+00  1.523438E+01  0.000000E+00
  0.000000E+00  1.562500E+01  0.000000E+00
  0.000000E+00  1.601562E+01  0.000000E+00
  0.000000E+00  1.640625E+01  0.000000E+00
  0.000000E+00  1.679688E+01  0.000000E+00
  0.000000E+00  1.718750E+01  0.000000E+00
  0.000000E+00  1.757812E+01  0.000000E+00
  0.000000E+00  1.796875E+01  0.000000E+00
  0.000000E+00  1.835938E+01  0.000000E+00
  0.000000E+00  1.875000E+01  0.000000E+00
  0.000000E+00  1.914062E+01  0.000000E+00
  0.000000E+00  1.953125E+01  0.000000E+00
  0.000000E+00  1.992188E+01  0.000000E+00
  0.000000E+00  2.031250E+01  0.000000E+00
  0.000000E+00  2.070312E+01  0.000000E+00
  0.000000E+00  2.109375E+01  0.000000E+00
  0.000000E+00  2.148438E+01  0.000000E+00
  0.000000E+00  2.187500E+01  0.000000E+00
  0.000000E+00  2.226562E+01  0.000000E+00
  0.000000E+00  2.265625E+01  0.000000E+00
  0.000000E+00  2.304688E+01  0.000000E+00
  0.000000E+00  2.343750E+01  0.000000E+00
  0.000000E+00  2.382812E+01  0.000000E+00
  0.000000E+00  2.421875E+01  0.000000E+00
  0.000000E+00  2.460938E+01  0.000000E+00
  3.906250E-01  0.000000E+00  0.000000E+00
  3.906250E-01  3.906250E-01  0.000000E+00
  3.906250E-01  7.812500E-01  0.000000E+00
  3.906250E-01  1.171875E+00  0.000000E+00
  3.906250E-01  1.562500E+00  0.000000E+00
  3.906250E-01  1.953125E+00  0.000000E+00
  3.906250E-01  2.343750E+00  0.000000E+00
  3.906250E-01  2.734375E+00  0.000000E+00
  3.906250E-01  3.125000E+00  0.000000E+00
  3.906250E-01  3.515625E+00  0.000000E+00
  3.906250E-01  3.906250E+00  0.000000E+00
  3.906250E-01  4.296875E+00  0.000000E+00
  3.906250E-01  4.687500E+00  0.000000E+00
  3.906250E-01  5.078125E+00  0.000000E+00
  3.906250E-01  5.468750E+00  0.000000E+00
  3.906250E-01  5.859375E+00  0.000000E+00
  3.906250E-01  6.250000E+00  0.000000E+00
  3.906250E-01  6.640625E+00  0.000000E+00
  3.906250E-01  7.031250E+00  0.000000E+00
  3.906250E-01  7.421875E+00  0.000000E+00
  3.906250E-01  7.812500E+00  0.000000E+00
  3.906250E-01  8.203125E+00  0.000000E+00
  3.906250E-01  8.593750E+00  0.000000E+00
  3.906250E-01  8.984375E+00  0.000000E+00
  3.906250E-01  9.375000E+00  0.000000E+00
  3.906250E-01  9.765625E+00  0.000000E+00
  3.906250E-01  1.015625E+01  0.000000E+00
  3.906250E-01  1.054688E+01  0.000000E+00
  3.906250E-01  1.093750E+01  0.000000E+00
  3.906250E-01  1.132812E+01  0.000000E+00
  3.906250E-01  1.171875E+01  0.000000E+00
  3.906250E-01  1.210938E+01  0.000000E+00
  3.906250E-01  1.250000E+01  0.000000E+00
  3.906250E-01  1.289062E+01  0.000000E+00
  3.906250E-01  1.328125E+01  0.000000E+00
  3.906250E-01  1.367188E+01  0.000000E+00
  3.906250E-01  1.406250E+01  0.000000E+00
  3.906250E-01  1.445312E+01  0.000000E+00
  3.906250E-01  1.484375E+01  0.000000E+00
  3.906250E-01  1.523438E+01  0.000000E+00
  3.906250E-01  1.562500E+01  0.000000E+00
  3.906250E-01  1.601562E+01  0.000000E+00
  3.906250E-01  1.640625E+01  0.000000E+00
  3.906250E-01  1.679688E+01  0.000000E+00
  3.906250E-01  1.718750E+01  0.000000E+00
  3.906250E-01  1.757812E+01  0.000000E+00
  3.906250E-01  1.796875E+01  0.000000E+00
  3.906250E-01  1.835938E+01  0.000000E+00
  3.906250E-01  1.875000E+01  0.000000E+00
  3.906250E-01  1.914062E+01  0.000000E+00
  3.906250E-01  1.953125E+01  0.000000E+00
  3.906250E-01  1.992188E+01  0.000000E+00
  3.906250E-01  2.031250E+01  0.000000E+00
  3.906250E-01  2.070312E+01  0.000000E+00
  3.906250E-01  2.109375E+01  0.000000E+00
  3.906250E-01  2.148438E+01  0.000000E+00
  3.906250E-01  2.187500E+01  0.000000E+00
  3.906250E-01  2.226562E+01  0.000000E+00
  3.906250E-01  2.265625E+01  0.000000E+00
  3.906250E-01  2.304688E+01  0.000000E+00
  3.906250E-01  2.343750E+01  0.000000E+00
  3.906250E-01  2.382812E+01  0.000000E+00
  3.906250E-01  2.421875E+01  0.000000E+00
  3.906250E-01  2.460938E+01  0.000000E+00
  7.812500E-01  0.000000E+00  0.000000E+00
  7.812500E-01  3.906250E-01  0.000000E+00
  7.812500E-01  7.812500E-01  0.000000E+00
  7.812500E-01  1.171875E+00  0.000000E+00
  7.812500E-01  1.562500E+00  0.000000E+00
  7.812500E-01  1.953125E+00  0.000000E+00
  7.812500E-01  2.343750E+00  0.000000E+00
  7.812500E-01  2.734375E+00  0.000000E+00
  7.812500E-01  3.125000E+00  0.000000E+00
  7.812500E-01  3.515625E+00  0.000000E+00
  7.812500E-01  3.906250E+00  0.000000E+00
  7.812500E-01  4.296875E+00  0.000000E+00
  7.812500E-01  4.687500E+00  0.000000E+00
  7.812500E-01  5.078125E+00  0.000000E+00
  7.812500E-01  5.468750E+00  0.000000E+00
  7.812500E-01  5.859375E+00  0.000000E+00
  7.812500E-01  6.250000E+00  0.000000E+00
  7.812500E-01  6.640625E+00  0.000000E+00
  7.812500E-01  7.031250E+00  0.000000E+00
  7.812500E-01  7.421875E+00  0.000000E+00
  7.812500E-01  7.812500E+00  0.000000E+00
  7.812500E-01  8.203125E+00  0.000000E+00
  7.812500E-01  8.593750E+00  0.000000E+00
  7.812500E-01  8.984375E+00  0.000000E+00
  7.812500E-01  9.375000E+00  0.000000E+00
  7.812500E-01  9.765625E+00  0.000000E+00
  7.812500E-01  1.015625E+01  0.000000E+00
  7.812500E-01  1.054688E+01  0.000000E+00
  7.812500E-01  1.093750E+01  0.000000E+00
  7.812500E-01  1.132812E+01  0.000000E+00
  7.812500E-01  1.171875E+01  0.000000E+00
  7.812500E-01  1.210938E+01  0.000000E+00
  7.812500E-01  1.250000E+01  0.000000E+00
  7.812500E-01  1.289062E+01  0.000000E+00
  7.812500E-01  1.328125E+01  0.000000E+00
  7.812500E-01  1.367188E+01  0.000000E+00
  7.812500E-01  1.406250E+01  0.000000E+00
  7.812500E-01  1.445312E+01  0.000000E+00
  7.812500E-01  1.484375E+01  0.000000E+00
  7.812500E-01  1.523438E+01  0.000000E+00
  7.812500E-01  1.562500E+01  0.000000E+00
  7.812500E-01  1.601562E+01  0.000000E+00
  7.812500E-01  1.640625E+01  0.000000E+00
  7.812500E-01  1.679688E+01  0.000000E+00
  7.812500E-01  1.718750E+01  0.000000E+00
  7.812500E-01  1.757812E+01  0.000000E+00
  7.812500E-01  1.796875E+01  0.000000E+00
  7.812500E-01  1.835938E+01  0.000000E+00
  7.812500E-01  1.875000E+01  0.000000E+00
  7.812500E-01  1.914062E+01  0.000000E+00
  7.812500E-01  1.953125E+01  0.000000E+00
  7.812500E-01  1.992188E+01  0.000000E+00
  7.812500E-01  2.031250E+01  0.000000E+00
  7.812500E-01  2.070312E+01  0.000000E+00
  7.812500E-01  2.109375E+01  0.000000E+00
  7.812500E-01  2.148438E+01  0.000000E+00
  7.812500E-01  2.187500E+01  0.000000E+00
  7.812500E-01  2.226562E+01  0.000000E+00
  7.812500E-01  2.265625E+01  0.000000E+00
  7.812500E-01  2.304688E+01  0.000000E+00
  7.812500E-01  2.343750E+01  0.000000E+00
  7.812500E-01  2.382812E+01  0.000000E+00
  7.812500E-01  2.421875E+01  0.000000E+00
  7.812500E-01  2.460938E+01  0.000000E+00
  1.171875E+00  0.000000E+00  0.000000E+00
  1.171875E+00  3.906250E-01  0.000000E+00
  1.171875E+00  7.812500E-01  0.000000E+00
  1.171875E+00  1.171875E+00  0.000000E+00
  1.171875E+00  1.562500E+00  0.000000E+00
  1.171875E+00  1.953125E+00  0.000000E+00
  1.171875E+00  2.343750E+00  0.000000E+00
  1.171875E+00  2.734375E+00  0.000000E+00
  1.171875E+00  3.125000E+00  0.000000E+00
  1.171875E+00  3.515625E+00  0.000000E+00
  1.171875E+00  3.906250E+00  0.000000E+00
  1.171875E+00  4.296875E+00  0.000000E+00
  1.171875E+00  4.687500E+00  0.000000E+00
  1.171875E+00  5.078125E+00  0.000000E+00
  1.171875E+00  5.468750E+00  0.000000E+00
  1.171875E+00  5.859375E+00  0.000000E+00
  1.171875E+00  6.250000E+00  0.000000E+00
  1.171875E+00  6.640625E+00  0.000000E+00
  1.171875E+00  7.031250E+00  0.000000E+00
  1.171875E+00  7.421875E+00  0.000000E+00
  1.171875E+00  7.812500E+00  0.000000E+00
  1.171875E+00  8.203125E+00  0.000000E+00
  1.171875E+00  8.593750E+00  0.000000E+00
  1.171875E+00  8.984375E+00  0.000000E+00
  1.171875E+00  9.375000E+00  0.000000E+00
  1.171875E+00  9.765625E+00  0.000000E+00
  1.171875E+00  1.015625E+01  0.000000E+00
  1.171875E+00  1.054688E+01  0.000000E+00
  1.171875E+00  1.093750E+01  0.000000E+00
  1.171875E+00  1.132812E+01  0.000000E+00
  1.171875E+00  1.171875E+01  0.000000E+00
  1.171875E+00  1.210938E+01  0.000000E+00
  1.171875E+00  1.250000E+01  0.000000E+00
  1.171875E+00  1.289062E+01  0.000000E+00
  1.171875E+00  1.328125E+01  0.000000E+00
  1.171875E+00  1.367188E+01  0.000000E+00
  1.171875E+00  1.406250E+01  0.000000E+00
  1.171875E+00  1.445312E+01  0.000000E+00
[...]
POINT_DATA   4096
SCALARS CON  float  1
LOOKUP_TABLE default
  4.714936E-01
  4.729730E-01
  4.803723E-01
  4.762290E-01
  4.765111E-01
  4.685764E-01
  4.708242E-01
  4.687490E-01
  4.758772E-01
  4.738607E-01
  4.763644E-01
  4.685953E-01
  4.683796E-01
  4.627246E-01
  4.678732E-01
  4.676430E-01
  4.753194E-01
  4.734596E-01
  4.766103E-01
  4.699364E-01
  4.703352E-01
  4.635283E-01
  4.650154E-01
  4.591164E-01
  4.612150E-01
  4.570269E-01
  4.629662E-01
  4.638233E-01
  4.731346E-01
  4.728105E-01
  4.766498E-01
  4.700817E-01
  4.712470E-01
  4.669679E-01
  4.725913E-01
  4.706592E-01
  4.743249E-01
  4.676951E-01
  4.676099E-01
  4.606368E-01
  4.629579E-01
  4.587024E-01
  4.619883E-01
  4.569882E-01
  4.597349E-01
  4.567687E-01
  4.648703E-01
  4.685617E-01
  4.803454E-01
  4.803968E-01
  4.813850E-01
  4.691322E-01
  4.642118E-01
  4.568582E-01
  4.649952E-01
  4.717553E-01
  4.871595E-01
  4.897420E-01
  4.923753E-01
  4.812436E-01
  4.761376E-01
  4.653292E-01
  4.660868E-01
  4.633647E-01
  4.721352E-01
  4.753519E-01
  4.842187E-01
  4.825738E-01
  4.818555E-01
  4.716040E-01
  4.687374E-01
  4.636581E-01
  4.690407E-01
  4.699657E-01
  4.762050E-01
  4.734153E-01
  4.744452E-01
  4.680807E-01
  4.687704E-01
  4.652359E-01
  4.702496E-01
  4.699357E-01
  4.748843E-01
  4.709603E-01
  4.711058E-01
  4.644103E-01
  4.652921E-01
  4.617409E-01
  4.656052E-01
  4.633085E-01
  4.671599E-01
  4.651339E-01
  4.703512E-01
  4.698625E-01
  4.751635E-01
  4.724467E-01
  4.741094E-01
  4.681805E-01
  4.684862E-01
  4.634580E-01
  4.661702E-01
  4.636801E-01
  4.675908E-01
  4.641321E-01
  4.653030E-01
  4.588866E-01
  4.585449E-01
  4.529480E-01
  4.555460E-01
  4.546178E-01
  4.630885E-01
  4.677738E-01
  4.786202E-01
  4.790346E-01
  4.794434E-01
  4.689582E-01
  4.656521E-01
  4.621572E-01
  4.725286E-01
  4.808327E-01
  4.933076E-01
  4.919819E-01
  4.894343E-01
  4.769775E-01
  4.720724E-01
  4.642646E-01
  4.661055E-01
  4.645761E-01
  4.637440E-01
  4.744060E-01
  4.848237E-01
  4.862957E-01
  4.821929E-01
  4.721987E-01
  4.658472E-01
  4.624271E-01
  4.658947E-01
  4.696116E-01
  4.745756E-01
  4.747811E-01
  4.742902E-01
  4.704329E-01
  4.690748E-01
  4.672651E-01
  4.690837E-01
  4.695748E-01
  4.716940E-01
  4.706702E-01
  4.706767E-01
  4.682050E-01
  4.678009E-01
  4.655014E-01
  4.653534E-01
  4.635044E-01
  4.644082E-01
  4.641241E-01
  4.661760E-01
  4.655553E-01
  4.658411E-01
  4.634850E-01
  4.637940E-01
  4.635895E-01
  4.666578E-01
  4.676095E-01
  4.692035E-01
  4.670254E-01
  4.657699E-01
  4.621198E-01
  4.604357E-01
  4.566520E-01
  4.550149E-01
  4.521993E-01
  4.533192E-01
  4.553112E-01
  4.623632E-01
  4.692188E-01
  4.772136E-01
  4.790737E-01
  4.774211E-01
  4.699057E-01
  4.649750E-01
  4.629142E-01
  4.695651E-01
  4.788044E-01
  4.894450E-01
  4.918701E-01
  4.880929E-01
  4.762313E-01
  4.650285E-01
  4.546804E-01
  4.519471E-01
  4.538713E-01
  4.636759E-01
  4.752417E-01
  4.821843E-01
  4.865606E-01
  4.792694E-01
  4.703355E-01
  4.585722E-01
  4.555891E-01
  4.558238E-01
  4.642536E-01
  4.702790E-01
  4.772031E-01
  4.760767E-01
  4.744406E-01
  4.677661E-01
  4.660389E-01
  4.641871E-01
  4.688713E-01
  4.709448E-01
  4.748424E-01
  4.725204E-01
  4.720060E-01
  4.682103E-01
  4.691675E-01
  4.673937E-01
  4.685672E-01
  4.650783E-01
  4.645785E-01
  4.615989E-01
  4.640166E-01
  4.644148E-01
  4.680566E-01
  4.663472E-01
  4.659312E-01
  4.611793E-01
  4.611269E-01
  4.602146E-01
  4.649411E-01
  4.662717E-01
  4.688074E-01
  4.646919E-01
  4.621804E-01
  4.568061E-01
  4.574091E-01
  4.574521E-01
  4.629680E-01
  4.658251E-01
  4.719244E-01
  4.730719E-01
  4.749089E-01
  4.699818E-01
  4.669068E-01
  4.620946E-01
  4.654671E-01
  4.704102E-01
  4.807186E-01
  4.844102E-01
  4.851059E-01
  4.763498E-01
  4.688670E-01
  4.593798E-01
  4.565805E-01
  4.538849E-01
  4.584408E-01
  4.591915E-01
  4.737428E-01
  4.779494E-01
  4.834837E-01
  4.732230E-01
  4.671220E-01
  4.545355E-01
  4.551576E-01
  4.536160E-01
  4.637285E-01
  4.663370E-01
  4.746199E-01
  4.711533E-01
  4.728993E-01
  4.658239E-01
  4.681223E-01
  4.647078E-01
  4.712292E-01
  4.702541E-01
  4.763956E-01
  4.725920E-01
  4.750903E-01
  4.683760E-01
  4.693319E-01
  4.624337E-01
  4.641571E-01
  4.587738E-01
  4.624210E-01
  4.589275E-01
  4.638309E-01
  4.606159E-01
  4.650379E-01
  4.611462E-01
  4.654236E-01
  4.622050E-01
  4.675399E-01
  4.649510E-01
  4.698745E-01
  4.656737E-01
  4.681919E-01
  4.616880E-01
  4.633244E-01
  4.584016E-01
  4.636989E-01
  4.629159E-01
  4.708227E-01
  4.698575E-01
  4.752585E-01
  4.706465E-01
  4.723440E-01
  4.646594E-01
  4.646927E-01
  4.580118E-01
  4.622041E-01
  4.618729E-01
  4.718039E-01
  4.731200E-01
  4.790936E-01
  4.722541E-01
  4.697507E-01
  4.578481E-01
  4.553251E-01
  4.486458E-01
  4.552589E-01
  4.646365E-01
  4.740500E-01
  4.738242E-01
  4.790631E-01
  4.692475E-01
  4.649167E-01
  4.518316E-01
  4.522538E-01
  4.493697E-01
  4.602054E-01
  4.632993E-01
  4.735899E-01
  4.703080E-01
  4.723867E-01
  4.637321E-01
  4.660846E-01
  4.629524E-01
  4.723935E-01
  4.732251E-01
  4.808822E-01
  4.751226E-01
  4.756339E-01
  4.661951E-01
  4.673193E-01
  4.607819E-01
  4.641928E-01
  4.584014E-01
  4.622430E-01
  4.585205E-01
  4.664135E-01
  4.665469E-01
  4.749595E-01
  4.706573E-01
  4.719278E-01
  4.624564E-01
  4.641285E-01
  4.604675E-01
  4.691205E-01
  4.685273E-01
  4.743311E-01
  4.674733E-01
  4.688962E-01
  4.632435E-01
  4.704111E-01
  4.704689E-01
  4.788875E-01
  4.746750E-01
  4.764519E-01
  4.672007E-01
  4.672226E-01
  4.588508E-01
  4.610449E-01
  4.560177E-01
  4.626302E-01
  4.618806E-01
  4.703025E-01
  4.672491E-01
  4.706399E-01
  4.632298E-01
  4.656040E-01
  4.601890E-01
  4.649583E-01
  4.607541E-01
  4.664054E-01
  4.631762E-01
  4.707580E-01
  4.705825E-01
  4.744427E-01
  4.672587E-01
  4.650390E-01
  4.565122E-01
  4.580921E-01
  4.561958E-01
  4.637013E-01
  4.643462E-01
  4.703189E-01
  4.665836E-01
  4.683329E-01
  4.633159E-01
  4.674999E-01
  4.671582E-01
  4.754433E-01
  4.760583E-01
  4.813268E-01
  4.759619E-01
  4.748905E-01
  4.653329E-01
  4.632736E-01
  4.558300E-01
  4.577880E-01
  4.550225E-01
  4.611134E-01
  4.611464E-01
  4.684044E-01
  4.678674E-01
  4.731538E-01
  4.698617E-01
  4.729037E-01
  4.690292E-01
  4.731433E-01
  4.706997E-01
  4.748991E-01
  4.704474E-01
  4.715019E-01
  4.649365E-01
  4.669092E-01
  4.646409E-01
  4.721739E-01
  4.733651E-01
  4.798243E-01
  4.755448E-01
  4.753296E-01
  4.668246E-01
  4.661937E-01
  4.599414E-01
  4.619563E-01
  4.576268E-01
  4.610004E-01
  4.581188E-01
  4.631333E-01
  4.615101E-01
  4.668872E-01
  4.645418E-01
  4.683408E-01
  4.639333E-01
  4.658349E-01
  4.607941E-01
  4.643527E-01
  4.672384E-01
  4.680790E-01
  4.679272E-01
  4.709367E-01
  4.691251E-01
  4.678028E-01
  4.625712E-01
  4.615861E-01
  4.605949E-01
  4.652113E-01
  4.677782E-01
  4.717372E-01
  4.697938E-01
  4.684189E-01
  4.641131E-01
  4.654168E-01
  4.677750E-01
  4.757836E-01
  4.801957E-01
  4.834129E-01
  4.782729E-01
  4.725362E-01
  4.637676E-01
  4.605718E-01
  4.578145E-01
  4.602483E-01
  4.606189E-01
  4.641209E-01
  4.654202E-01
  4.709676E-01
  4.743724E-01
  4.795435E-01
  4.785528E-01
  4.770881E-01
  4.713966E-01
  4.703424E-01
  4.695515E-01
  4.736941E-01
  4.740454E-01
  4.744364E-01
  4.695508E-01
  4.680016E-01
  4.665533E-01
  4.713371E-01
  4.741440E-01
  4.776654E-01
  4.745162E-01
  4.717884E-01
  4.660573E-01
  4.648343E-01
  4.623648E-01
  4.638248E-01
  4.630121E-01
  4.656594E-01
  4.654492E-01
  4.671832E-01
  4.643918E-01
  4.637411E-01
  4.613679E-01
  4.645384E-01
  4.668197E-01
  4.716907E-01
  4.711255E-01
  4.709229E-01
  4.614528E-01
  4.623628E-01
  4.654021E-01
  4.684171E-01
  4.709634E-01
  4.715589E-01
  4.715173E-01
  4.709284E-01
  4.714539E-01
  4.721251E-01
  4.729466E-01
  4.719685E-01
  4.698611E-01
  4.668444E-01
  4.656982E-01
  4.669333E-01
  4.713710E-01
  4.764423E-01
  4.805067E-01
  4.805716E-01
  4.770474E-01
  4.704105E-01
  4.639302E-01
  4.589556E-01
  4.576951E-01
  4.592953E-01
  4.634597E-01
  4.674720E-01
  4.707260E-01
  4.718216E-01
  4.721221E-01
  4.716193E-01
  4.720118E-01
  4.729283E-01
  4.752662E-01
  4.773649E-01
  4.787222E-01
  4.772025E-01
  4.735782E-01
  4.682729E-01
  4.643085E-01
  4.625241E-01
  4.641408E-01
  4.670556E-01
  4.701566E-01
  4.710154E-01
  4.704224E-01
  4.687192E-01
  4.681844E-01
  4.683278E-01
  4.693282E-01
  4.693032E-01
  4.688158E-01
  4.674285E-01
  4.667184E-01
  4.661315E-01
  4.665123E-01
  4.668017E-01
  4.677270E-01
  4.680765E-01
  4.682002E-01
  4.667234E-01
  4.646776E-01
  4.621769E-01
  4.617935E-01
  4.597592E-01
  4.629235E-01
  4.671826E-01
  4.728159E-01
  4.745560E-01
  4.750152E-01
  4.727461E-01
  4.727352E-01
  4.728660E-01
  4.752139E-01
  4.748964E-01
  4.735932E-01
  4.688584E-01
  4.659297E-01
  4.644279E-01
  4.684472E-01
  4.736275E-01
  4.794917E-01
  4.796484E-01
  4.761460E-01
  4.682472E-01
  4.627861E-01
  4.597689E-01
  4.626945E-01
  4.668150E-01
  4.722797E-01
  4.740640E-01
  4.749977E-01
  4.734719E-01
  4.738109E-01
  4.731648E-01
  4.737143E-01
  4.720088E-01
  4.716201E-01
  4.706317E-01
  4.722592E-01
  4.724041E-01
  4.724551E-01
  4.689151E-01
  4.659785E-01
  4.627516E-01
  4.634707E-01
  4.646578E-01
  4.674818E-01
  4.675383E-01
  4.679538E-01
  4.671254E-01
  4.690082E-01
  4.701714E-01
  4.722504E-01
  4.716007E-01
  4.719379E-01
  4.715004E-01
  4.734203E-01
  4.734533E-01
  4.732106E-01
  4.698867E-01
  4.682567E-01
  4.670664E-01
  4.691493E-01
  4.695273E-01
  4.691155E-01
  4.648357E-01
  4.555171E-01
  4.569995E-01
  4.610124E-01
  4.665458E-01
  4.717724E-01
  4.753111E-01
  4.764788E-01
  4.761030E-01
  4.752767E-01
  4.748732E-01
  4.744327E-01
  4.731546E-01
  4.704226E-01
  4.671475E-01
  4.648671E-01
  4.651259E-01
  4.679057E-01
  4.720096E-01
  4.751395E-01
  4.755720E-01
  4.726627E-01
  4.677497E-01
  4.629662E-01
  4.607390E-01
  4.622399E-01
  4.672178E-01
  4.733109E-01
  4.775706E-01
  4.776949E-01
  4.739719E-01
  4.685022E-01
  4.642987E-01
  4.631752E-01
  4.655462E-01
  4.698935E-01
  4.739148E-01
  4.751237E-01
  4.727380E-01
  4.677092E-01
  4.625870E-01
  4.594491E-01
  4.592142E-01
  4.608953E-01
  4.630152E-01
  4.642973E-01
  4.649741E-01
  4.659278E-01
  4.681561E-01
  4.712277E-01
  4.738514E-01
  4.743937E-01
  4.727490E-01
  4.700877E-01
  4.684714E-01
  4.689418E-01
  4.713816E-01
  4.742928E-01
  4.762910E-01
  4.762927E-01
  4.742728E-01
  4.704451E-01
  4.656385E-01
  4.606964E-01
  4.569879E-01
  4.585548E-01
  4.587237E-01
  4.602819E-01
  4.665698E-01
  4.705109E-01
  4.741537E-01
  4.723710E-01
  4.711458E-01
  4.682704E-01
  4.695466E-01
  4.699234E-01
  4.720051E-01
  4.696777E-01
  4.674690E-01
  4.627298E-01
  4.623736E-01
  4.633222E-01
  4.692544E-01
  4.729618E-01
  4.759004E-01
  4.723176E-01
  4.682386E-01
  4.624486E-01
  4.623515E-01
  4.643786E-01
  4.714421E-01
  4.760049E-01
  4.797870E-01
  4.774452E-01
  4.748986E-01
  4.698661E-01
  4.682308E-01
  4.655648E-01
  4.658169E-01
  4.642857E-01
  4.655738E-01
  4.651349E-01
  4.668328E-01
  4.654231E-01
  4.652316E-01
  4.625251E-01
  4.628536E-01
  4.622710E-01
  4.647795E-01
  4.650036E-01
  4.670364E-01
  4.668871E-01
  4.696441E-01
  4.704888E-01
  4.725587E-01
  4.702461E-01
  4.686075E-01
  4.653347E-01
  4.670099E-01
  4.694027E-01
  4.750587E-01
  4.768972E-01
  4.782077E-01
  4.752974E-01
  4.743268E-01
  4.715166E-01
  4.707023E-01
  4.664138E-01
  4.632983E-01
  4.566723E-01
  4.599263E-01
  4.612031E-01
  4.666081E-01
  4.682139E-01
  4.719137E-01
  4.702871E-01
  4.707638E-01
  4.674819E-01
  4.682007E-01
  4.659771E-01
  4.670759E-01
  4.640888E-01
  4.642803E-01
  4.617451E-01
  4.642556E-01
  4.650109E-01
  4.701803E-01
  4.715902E-01
  4.748635E-01
  4.721590E-01
  4.705498E-01
  4.643861E-01
  4.627224E-01
  4.606441E-01
  4.656551E-01
  4.693748E-01
  4.756785E-01
  4.748218E-01
  4.731692E-01
  4.657238E-01
  4.625693E-01
  4.591409E-01
  4.626976E-01
  4.647757E-01
  4.697597E-01
  4.687339E-01
  4.683491E-01
  4.631199E-01
  4.620318E-01
  4.595136E-01
  4.624033E-01
  4.627108E-01
  4.661633E-01
  4.654404E-01
  4.679225E-01
  4.673440E-01
  4.706628E-01
  4.700844E-01
  4.713975E-01
  4.672273E-01
  4.653994E-01
  4.608171E-01
  4.620947E-01
  4.630113E-01
  4.697272E-01
  4.734906E-01
  4.791336E-01
  4.781795E-01
  4.773302E-01
  4.705682E-01
  4.665411E-01
  4.599883E-01
  4.588922E-01
  4.642937E-01
  4.646532E-01
  4.637307E-01
  4.670297E-01
  4.677114E-01
  4.698681E-01
  4.672902E-01
  4.663868E-01
  4.630717E-01
  4.639827E-01
  4.633576E-01
  4.656696E-01
  4.642643E-01
  4.646377E-01
  4.621996E-01
  4.639621E-01
  4.652032E-01
  4.710778E-01
  4.742473E-01
  4.781294E-01
  4.756636E-01
  4.728313E-01
  4.660033E-01
  4.633454E-01
  4.609353E-01
  4.642943E-01
  4.662748E-01
  4.704144E-01
  4.698625E-01
  4.704634E-01
  4.677133E-01
  4.680716E-01
  4.659116E-01
  4.663524E-01
  4.636904E-01
  4.640593E-01
  4.625572E-01
  4.648948E-01
  4.648436E-01
  4.671743E-01
  4.660170E-01
  4.674192E-01
  4.664226E-01
  4.687749E-01
  4.684159E-01
  4.703786E-01
  4.688364E-01
  4.694980E-01
  4.667667E-01
  4.661298E-01
  4.622065E-01
  4.615868E-01
  4.600823E-01
  4.639846E-01
  4.669271E-01
  4.724355E-01
  4.728955E-01
  4.734166E-01
  4.695823E-01
  4.688559E-01
  4.666399E-01
  4.681905E-01
  4.667820E-01
  4.672461E-01
  4.663551E-01
  4.682747E-01
  4.674139E-01
  4.675137E-01
  4.668100E-01
  4.681858E-01
  4.682426E-01
  4.690069E-01
  4.674629E-01
  4.665755E-01
  4.640289E-01
  4.630736E-01
  4.615650E-01
  4.628190E-01
  4.642826E-01
  4.682013E-01
  4.709107E-01
  4.744585E-01
  4.758929E-01
  4.778498E-01
  4.769174E-01
  4.749389E-01
  4.689667E-01
  4.631749E-01
  4.573886E-01
  4.564784E-01
  4.579298E-01
  4.625060E-01
  4.646538E-01
  4.654972E-01
  4.629785E-01
  4.620871E-01
  4.619735E-01
  4.655133E-01
  4.683746E-01
  4.712154E-01
  4.701786E-01
  4.685730E-01
  4.652729E-01
  4.645077E-01
  4.640429E-01
  4.661649E-01
  4.672573E-01
  4.693439E-01
  4.693256E-01
  4.698846E-01
  4.682946E-01
  4.674117E-01
  4.647619E-01
  4.636129E-01
  4.618416E-01
  4.625873E-01
  4.630226E-01
  4.653578E-01
  4.662420E-01
  4.680233E-01
  4.677432E-01
  4.679349E-01
  4.656442E-01
  4.638664E-01
  4.608341E-01
  4.606011E-01
  4.611052E-01
  4.644548E-01
  4.766313E-01
  4.747756E-01
  4.712490E-01
  4.683319E-01
  4.669128E-01
  4.668234E-01
  4.670151E-01
  4.669713E-01
  4.664407E-01
  4.657647E-01
  4.649953E-01
  4.644110E-01
  4.641074E-01
  4.645847E-01
  4.659858E-01
  4.684318E-01
  4.714327E-01
  4.745907E-01
  4.771502E-01
  4.785414E-01
  4.778544E-01
  4.747935E-01
  4.696504E-01
  4.640025E-01
  4.594839E-01
  4.573430E-01
  4.573673E-01
  4.587570E-01
  4.604272E-01
  4.622494E-01
  4.643743E-01
  4.670207E-01
  4.693561E-01
  4.704182E-01
  4.695604E-01
  4.676572E-01
  4.660632E-01
  4.659397E-01
  4.669188E-01
  4.680931E-01
  4.685901E-01
  4.687953E-01
  4.693171E-01
  4.705010E-01
  4.713751E-01
  4.708387E-01
  4.682395E-01
  4.644925E-01
  4.610334E-01
  4.594528E-01
  4.603122E-01
  4.635534E-01
  4.679826E-01
  4.720073E-01
  4.736026E-01
  4.717274E-01
  4.665406E-01
  4.600729E-01
  4.548782E-01
  4.533568E-01
  4.561810E-01
  4.624902E-01
  4.696864E-01
  4.750513E-01
  4.785444E-01
  4.779662E-01
  4.740370E-01
  4.685335E-01
  4.655588E-01
  4.650561E-01
  4.672948E-01
  4.691691E-01
  4.701728E-01
  4.685147E-01
  4.659905E-01
  4.628953E-01
  4.620298E-01
  4.631521E-01
  4.670071E-01
  4.707033E-01
  4.735240E-01
  4.736658E-01
  4.733620E-01
  4.729112E-01
  4.737003E-01
  4.730641E-01
  4.704445E-01
  4.646117E-01
  4.588746E-01
  4.548080E-01
  4.548492E-01
  4.568032E-01
  4.595505E-01
  4.603896E-01
  4.609587E-01
  4.618843E-01
  4.655644E-01
  4.701252E-01
  4.744903E-01
  4.753248E-01
  4.733530E-01
  4.688338E-01
  4.651541E-01
  4.627387E-01
  4.631685E-01
  4.647358E-01
  4.676407E-01
  4.696066E-01
  4.707686E-01
  4.692587E-01
  4.663859E-01
  4.621159E-01
  4.594266E-01
  4.587740E-01
  4.618660E-01
  4.664879E-01
  4.714708E-01
  4.732183E-01
  4.719018E-01
  4.672516E-01
  4.624256E-01
  4.578545E-01
  4.553510E-01
  4.539978E-01
  4.555450E-01
  4.595267E-01
  4.667336E-01
  4.737476E-01
  4.846875E-01
  4.801714E-01
  4.748018E-01
  4.679046E-01
  4.650955E-01
  4.629756E-01
  4.642659E-01
  4.641633E-01
  4.655070E-01
  4.643872E-01
  4.646587E-01
  4.631975E-01
  4.642252E-01
  4.643823E-01
  4.669832E-01
  4.675736E-01
  4.691144E-01
  4.679657E-01
  4.685188E-01
  4.678655E-01
  4.696254E-01
  4.692569E-01
  4.694171E-01
  4.663000E-01
  4.644737E-01
  4.614624E-01
  4.614323E-01
  4.605194E-01
  4.620205E-01
  4.624853E-01
  4.660613E-01
  4.690296E-01
  4.737730E-01
  4.747304E-01
  4.744890E-01
  4.701201E-01
  4.673567E-01
  4.642370E-01
  4.646372E-01
  4.640664E-01
  4.655048E-01
  4.655381E-01
  4.682864E-01
  4.696839E-01
  4.717949E-01
  4.693200E-01
  4.658325E-01
  4.595341E-01
  4.567388E-01
  4.557294E-01
  4.603345E-01
  4.655040E-01
  4.724333E-01
  4.750103E-01
  4.754845E-01
  4.703367E-01
  4.648339E-01
  4.576946E-01
  4.548753E-01
  4.543358E-01
  4.600556E-01
  4.672682E-01
  4.770180E-01
  4.823848E-01
  4.788598E-01
  4.758051E-01
  4.735727E-01
  4.661387E-01
  4.642607E-01
  4.609569E-01
  4.638458E-01
  4.632140E-01
  4.657987E-01
  4.628979E-01
  4.632515E-01
  4.599472E-01
  4.623365E-01
  4.625414E-01
  4.676353E-01
  4.673822E-01
  4.684747E-01
  4.631514E-01
  4.619808E-01
  4.593171E-01
  4.639031E-01
  4.656991E-01
  4.700299E-01
  4.672579E-01
  4.667315E-01
  4.626728E-01
  4.647390E-01
  4.641515E-01
  4.673746E-01
  4.652679E-01
  4.668780E-01
  4.657517E-01
  4.708613E-01
  4.727849E-01
  4.773601E-01
  4.745091E-01
  4.725560E-01
  4.650594E-01
  4.624938E-01
  4.582610E-01
  4.609304E-01
  4.617771E-01
  4.676852E-01
  4.687635E-01
  4.716284E-01
  4.673196E-01
  4.648204E-01
  4.579351E-01
  4.571117E-01
  4.556549E-01
  4.615065E-01
  4.647358E-01
  4.709366E-01
  4.700848E-01
  4.705647E-01
  4.660053E-01
  4.665935E-01
  4.646672E-01
  4.674693E-01
  4.657485E-01
  4.679136E-01
  4.670754E-01
  4.722683E-01
  4.742650E-01
  4.768827E-01
  4.711276E-01
  4.714119E-01
  4.648259E-01
  4.657143E-01
  4.603819E-01
  4.623459E-01
  4.578055E-01
  4.605759E-01
  4.572046E-01
  4.615458E-01
  4.599018E-01
  4.656462E-01
  4.643565E-01
  4.687813E-01
  4.643759E-01
  4.650391E-01
  4.582488E-01
  4.594833E-01
  4.563292E-01
  4.624267E-01
  4.628865E-01
  4.697990E-01
  4.684457E-01
  4.727679E-01
  4.696147E-01
  4.731057E-01
  4.693392E-01
  4.722333E-01
  4.687606E-01
  4.735771E-01
  4.727090E-01
  4.783315E-01
  4.745688E-01
  4.745754E-01
  4.659435E-01
  4.649946E-01
  4.596125E-01
  4.633531E-01
  4.613446E-01
  4.664949E-01
  4.652184E-01
  4.714517E-01
  4.705762E-01
  4.746113E-01
  4.684324E-01
  4.665129E-01
  4.574766E-01
  4.575853E-01
  4.543778E-01
  4.608960E-01
  4.618235E-01
  4.691915E-01
  4.683641E-01
  4.731849E-01
  4.704129E-01
  4.743297E-01
  4.712669E-01
  4.749682E-01
  4.716293E-01
  4.753945E-01
  4.727109E-01
  4.771868E-01
  4.742349E-01
  4.667422E-01
  4.651990E-01
  4.698350E-01
  4.651433E-01
  4.672157E-01
  4.619535E-01
  4.648595E-01
  4.605093E-01
  4.635663E-01
  4.588947E-01
  4.620872E-01
  4.588217E-01
  4.645946E-01
  4.638235E-01
  4.701399E-01
  4.665519E-01
  4.674802E-01
  4.590062E-01
  4.589994E-01
  4.548207E-01
  4.618347E-01
  4.630119E-01
  4.706717E-01
  4.682357E-01
  4.717508E-01
  4.679050E-01
  4.728042E-01
  4.704208E-01
  4.744779E-01
  4.693156E-01
  4.713097E-01
  4.669156E-01
  4.718343E-01
  4.697704E-01
  4.741732E-01
  4.687770E-01
  4.691551E-01
  4.615746E-01
  4.627816E-01
  4.587798E-01
  4.648726E-01
  4.652784E-01
  4.736158E-01
  4.727495E-01
  4.764328E-01
  4.693134E-01
  4.681408E-01
  4.599756E-01
  4.616462E-01