# vtk DataFile Version 2.0
title
ASCII
DATASET STRUCTURED_GRID
DIMENSIONS   64   64    1
POINTS   4096  float
  0.000000E+00  0.000000E+00  0.000000E+00
  0.000000E+00  3.906250E-01  0.000000E+00
  0.000000E+00  7.812500E-01  0.000000E+00
  0.000000E+00  1.171875E+00  0.000000E+00
  0.000000E+00  1.562500E+00  0.000000E+00
  0.000000E+00  1.953125E+00  0.000000E+00
  0.000000E+00  2.343750E+00  0.000000E+00
  0.000000E+00  2.734375E+00  0.000000E+00
  0.000000E+00  3.125000E+00  0.000000E+00
  0.000000E+00  3.515625E+00  0.000000E+00
  0.000000E+00  3.906250E+00  0.000000E+00
  0.000000E+00  4.296875E+00  0.000000E+00
  0.000000E+00  4.687500E+00  0.000000E+00
  0.000000E+00  5.078125E+00  0.000000E+00
  0.000000E+00  5.468750E+00  0.000000E+00
  0.000000E+00  5.859375E+00  0.000000E+00
  0.000000E+00  6.250000E+00  0.000000E+00
  0.000000E+00  6.640625E+00  0.000000E+00
  0.000000E+00  7.031250E+00  0.000000E+00
  0.000000E+00  7.421875E+00  0.000000E+00
  0.000000E+00  7.812500E+00  0.000000E+00
  0.000000E+00  8.203125E+00  0.000000E+00
  0.000000E+00  8.593750E+00  0.000000E+00
  0.000000E+00  8.984375E+00  0.000000E+00
  0.000000E+00  9.375000E+00  0.000000E+00
  0.000000E+00  9.765625E+00  0.000000E+00
  0.000000E+00  1.015625E+01  0.000000E+00
  0.000000E+00  1.054688E+01  0.000000E+00
  0.000000E+00  1.093750E+01  0.000000E+00
  0.000000E+00  1.132812E+01  0.000000E+00
  0.000000E+00  1.171875E+01  0.000000E+00
  0.000000E+00  1.210938E+01  0.000000E+00
  0.000000E+00  1.250000E+01  0.000000E+00
  0.000000E+00  1.289062E+01  0.000000E+00
  0.000000E+00  1.328125E+01  0.000000E+00
  0.000000E+00  1.367188E+01  0.000000E+00
  0.000000E+00  1.406250E+01  0.000000E+00
  0.000000E+00  1.445312E+01  0.000000E+00
  0.000000E+00  1.484375E+01  0.000000E+00
  0.000000E+00  1.523438E+01  0.000000E+00
  0.000000E+00  1.562500E+01  0.000000E+00
  0.000000E+00  1.601562E+01  0.000000E+00
  0.000000E+00  1.640625E+01  0.000000E+00
  0.000000E+00  1.679688E+01  0.000000E+00
  0.000000E+00  1.718750E+01  0.000000E+00
  0.000000E+00  1.757812E+01  0.000000E+00
  0.000000E+00  1.796875E+01  0.000000E+00
  0.000000E+00  1.835938E+01  0.000000E+00
  0.000000E+00  1.875000E+01  0.000000E+00
  0.000000E+00  1.914062E+01  0.000000E+00
  0.000000E+00  1.953125E+01  0.000000E+00
  0.000000E+00  1.992188E+01  0.000000E+00
  0.000000E+00  2.031250E+01  0.000000E+00
  0.000000E+00  2.070312E+01  0.000000E+00
  0.000000E+00  2.109375E+01  0.000000E+00
  0.000000E+00  2.148438E+01  0.000000E+00
  0.000000E+00  2.187500E+01  0.000000E+00
  0.000000E+00  2.226562E+01  0.000000E+00
  0.000000E+00  2.265625E+01  0.000000E+00
  0.000000E+00  2.304688E+01  0.000000E+00
  0.000000E+00  2.343750E+01  0.000000E+00
  0.000000E+00  2.382812E+01  0.000000E+00
  0.000000E+00  2.421875E+01  0.000000E+00
  0.000000E+00  2.460938E+01  0.000000E+00
  3.906250E-01  0.000000E+00  0.000000E+00
  3.906250E-01  3.906250E-01  0.000000E+00
  3.906250E-01  7.812500E-01  0.000000E+00
  3.906250E-01  1.171875E+00  0.000000E+00
  3.906250E-01  1.562500E+00  0.000000E+00
  3.906250E-01  1.953125E+00  0.000000E+00
  3.906250E-01  2.343750E+00  0.000000E+00
  3.906250E-01  2.734375E+00  0.000000E+00
  3.906250E-01  3.125000E+00  0.000000E+00
  3.906250E-01  3.515625E+00  0.000000E+00
  3.906250E-01  3.906250E+00  0.000000E+00
  3.906250E-01  4.296875E+00  0.000000E+00
  3.906250E-01  4.687500E+00  0.000000E+00
  3.906250E-01  5.078125E+00  0.000000E+00
  3.906250E-01  5.468750E+00  0.000000E+00
  3.906250E-01  5.859375E+00  0.000000E+00
  3.906250E-01  6.250000E+00  0.000000E+00
  3.906250E-01  6.640625E+00  0.000000E+00
  3.906250E-01  7.031250E+00  0.000000E+00
  3.906250E-01  7.421875E+00  0.000000E+00
  3.906250E-01  7.812500E+00  0.000000E+00
  3.906250E-01  8.203125E+00  0.000000E+00
  3.906250E-01  8.593750E+00  0.000000E+00
  3.906250E-01  8.984375E+00  0.000000E+00
  3.906250E-01  9.375000E+00  0.000000E+00
  3.906250E-01  9.765625E+00  0.000000E+00
  3.906250E-01  1.015625E+01  0.000000E+00
  3.906250E-01  1.054688E+01  0.000000E+00
  3.906250E-01  1.093750E+01  0.000000E+00
  3.906250E-01  1.132812E+01  0.000000E+00
  3.906250E-01  1.171875E+01  0.000000E+00
  3.906250E-01  1.210938E+01  0.000000E+00
  3.906250E-01  1.250000E+01  0.000000E+00
  3.906250E-01  1.289062E+01  0.000000E+00
  3.906250E-01  1.328125E+01  0.000000E+00
  3.906250E-01  1.367188E+01  0.000000E+00
  3.906250E-01  1.406250E+01  0.000000E+00
  3.906250E-01  1.445312E+01  0.000000E+00
  3.906250E-01  1.484375E+01  0.000000E+00
  3.906250E-01  1.523438E+01  0.000000E+00
  3.906250E-01  1.562500E+01  0.000000E+00
  3.906250E-01  1.601562E+01  0.000000E+00
  3.906250E-01  1.640625E+01  0.000000E+00
  3.906250E-01  1.679688E+01  0.000000E+00
  3.906250E-01  1.718750E+01  0.000000E+00
  3.906250E-01  1.757812E+01  0.000000E+00
  3.906250E-01  1.796875E+01  0.000000E+00
  3.906250E-01  1.835938E+01  0.000000E+00
  3.906250E-01  1.875000E+01  0.000000E+00
  3.906250E-01  1.914062E+01  0.000000E+00
  3.906250E-01  1.953125E+01  0.000000E+00
  3.906250E-01  1.992188E+01  0.000000E+00
  3.906250E-01  2.031250E+01  0.000000E+00
  3.906250E-01  2.070312E+01  0.000000E+00
  3.906250E-01  2.109375E+01  0.000000E+00
  3.906250E-01  2.148438E+01  0.000000E+00
  3.906250E-01  2.187500E+01  0.000000E+00
  3.906250E-01  2.226562E+01  0.000000E+00
  3.906250E-01  2.265625E+01  0.000000E+00
  3.906250E-01  2.304688E+01  0.000000E+00
  3.906250E-01  2.343750E+01  0.000000E+00
  3.906250E-01  2.382812E+01  0.000000E+00
  3.906250E-01  2.421875E+01  0.000000E+00
  3.906250E-01  2.460938E+01  0.000000E+00
  7.812500E-01  0.000000E+00  0.000000E+00
  7.812500E-01  3.906250E-01  0.000000E+00
  7.812500E-01  7.812500E-01  0.000000E+00
  7.812500E-01  1.171875E+00  0.000000E+00
  7.812500E-01  1.562500E+00  0.000000E+00
  7.812500E-01  1.953125E+00  0.000000E+00
  7.812500E-01  2.343750E+00  0.000000E+00
  7.812500E-01  2.734375E+00  0.000000E+00
  7.812500E-01  3.125000E+00  0.000000E+00
  7.812500E-01  3.515625E+00  0.000000E+00
  7.812500E-01  3.906250E+00  0.000000E+00
  7.812500E-01  4.296875E+00  0.000000E+00
  7.812500E-01  4.687500E+00  0.000000E+00
  7.812500E-01  5.078125E+00  0.000000E+00
  7.812500E-01  5.468750E+00  0.000000E+00
  7.812500E-01  5.859375E+00  0.000000E+00
  7.812500E-01  6.250000E+00  0.000000E+00
  7.812500E-01  6.640625E+00  0.000000E+00
  7.812500E-01  7.031250E+00  0.000000E+00
  7.812500E-01  7.421875E+00  0.000000E+00
  7.812500E-01  7.812500E+00  0.000000E+00
  7.812500E-01  8.203125E+00  0.000000E+00
  7.812500E-01  8.593750E+00  0.000000E+00
  7.812500E-01  8.984375E+00  0.000000E+00
  7.812500E-01  9.375000E+00  0.000000E+00
  7.812500E-01  9.765625E+00  0.000000E+00
  7.812500E-01  1.015625E+01  0.000000E+00
  7.812500E-01  1.054688E+01  0.000000E+00
  7.812500E-01  1.093750E+01  0.000000E+00
  7.812500E-01  1.132812E+01  0.000000E+00
  7.812500E-01  1.171875E+01  0.000000E+00
  7.812500E-01  1.210938E+01  0.000000E+00
  7.812500E-01  1.250000E+01  0.000000E+00
  7.812500E-01  1.289062E+01  0.000000E+00
  7.812500E-01  1.328125E+01  0.000000E+00
  7.812500E-01  1.367188E+01  0.000000E+00
  7.812500E-01  1.406250E+01  0.000000E+00
  7.812500E-01  1.445312E+01  0.000000E+00
  7.812500E-01  1.484375E+01  0.000000E+00
  7.812500E-01  1.523438E+01  0.000000E+00
  7.812500E-01  1.562500E+01  0.000000E+00
  7.812500E-01  1.601562E+01  0.000000E+00
  7.812500E-01  1.640625E+01  0.000000E+00
  7.812500E-01  1.679688E+01  0.000000E+00
  7.812500E-01  1.718750E+01  0.000000E+00
  7.812500E-01  1.757812E+01  0.000000E+00
  7.812500E-01  1.796875E+01  0.000000E+00
  7.812500E-01  1.835938E+01  0.000000E+00
  7.812500E-01  1.875000E+01  0.000000E+00
  7.812500E-01  1.914062E+01  0.000000E+00
  7.812500E-01  1.953125E+01  0.000000E+00
  7.812500E-01  1.992188E+01  0.000000E+00
  7.812500E-01  2.031250E+01  0.000000E+00
  7.812500E-01  2.070312E+01  0.000000E+00
  7.812500E-01  2.109375E+01  0.000000E+00
  7.812500E-01  2.148438E+01  0.000000E+00
  7.812500E-01  2.187500E+01  0.000000E+00
  7.812500E-01  2.226562E+01  0.000000E+00
  7.812500E-01  2.265625E+01  0.000000E+00
  7.812500E-01  2.304688E+01  0.000000E+00
  7.812500E-01  2.343750E+01  0.000000E+00
  7.812500E-01  2.382812E+01  0.000000E+00
  7.812500E-01  2.421875E+01  0.000000E+00
  7.812500E-01  2.460938E+01  0.000000E+00
  1.171875E+00  0.000000E+00  0.000000E+00
  1.171875E+00  3.906250E-01  0.000000E+00
  1.171875E+00  7.812500E-01  0.000000E+00
  1.171875E+00  1.171875E+00  0.000000E+00
  1.171875E+00  1.562500E+00  0.000000E+00
  1.171875E+00  1.953125E+00  0.000000E+00
  1.171875E+00  2.343750E+00  0.000000E+00
  1.171875E+00  2.734375E+00  0.000000E+00
  1.171875E+00  3.125000E+00  0.000000E+00
  1.171875E+00  3.515625E+00  0.000000E+00
  1.171875E+00  3.906250E+00  0.000000E+00
  1.171875E+00  4.296875E+00  0.000000E+00
  1.171875E+00  4.687500E+00  0.000000E+00
  1.171875E+00  5.078125E+00  0.000000E+00
  1.171875E+00  5.468750E+00  0.000000E+00
  1.171875E+00  5.859375E+00  0.000000E+00
  1.171875E+00  6.250000E+00  0.000000E+00
  1.171875E+00  6.640625E+00  0.000000E+00
  1.171875E+00  7.031250E+00  0.000000E+00
  1.171875E+00  7.421875E+00  0.000000E+00
  1.171875E+00  7.812500E+00  0.000000E+00
  1.171875E+00  8.203125E+00  0.000000E+00
  1.171875E+00  8.593750E+00  0.000000E+00
  1.171875E+00  8.984375E+00  0.000000E+00
  1.171875E+00  9.375000E+00  0.000000E+00
  1.171875E+00  9.765625E+00  0.000000E+00
  1.171875E+00  1.015625E+01  0.000000E+00
  1.171875E+00  1.054688E+01  0.000000E+00
  1.171875E+00  1.093750E+01  0.000000E+00
  1.171875E+00  1.132812E+01  0.000000E+00
  1.171875E+00  1.171875E+01  0.000000E+00
  1.171875E+00  1.210938E+01  0.000000E+00
  1.171875E+00  1.250000E+01  0.000000E+00
  1.171875E+00  1.289062E+01  0.000000E+00
  1.171875E+00  1.328125E+01  0.000000E+00
  1.171875E+00  1.367188E+01  0.000000E+00
  1.171875E+00  1.406250E+01  0.000000E+00
  1.171875E+00  1.445312E+01  0.000000E+00
[...]
POINT_DATA   4096
SCALARS CON  float  1
LOOKUP_TABLE default
  4.713049E-01
  4.741533E-01
  4.833214E-01
  4.785003E-01
  4.785772E-01
  4.690877E-01
  4.714749E-01
  4.689382E-01
  4.772954E-01
  4.752473E-01
  4.784569E-01
  4.694410E-01
  4.688812E-01
  4.619179E-01
  4.676749E-01
  4.674263E-01
  4.764450E-01
  4.743360E-01
  4.780243E-01
  4.703436E-01
  4.708822E-01
  4.629003E-01
  4.643658E-01
  4.572869E-01
  4.597850E-01
  4.553503E-01
  4.627616E-01
  4.640431E-01
  4.748180E-01
  4.742773E-01
  4.787306E-01
  4.712382E-01
  4.726355E-01
  4.674216E-01
  4.735822E-01
  4.711744E-01
  4.756131E-01
  4.681967E-01
  4.681163E-01
  4.596258E-01
  4.617111E-01
  4.562606E-01
  4.598071E-01
  4.539883E-01
  4.573427E-01
  4.543067E-01
  4.643264E-01
  4.693062E-01
  4.834673E-01
  4.835252E-01
  4.843144E-01
  4.696236E-01
  4.635464E-01
  4.547535E-01
  4.641492E-01
  4.725274E-01
  4.916443E-01
  4.959407E-01
  4.993987E-01
  4.854001E-01
  4.775133E-01
  4.631914E-01
  4.633365E-01
  4.606787E-01
  4.724815E-01
  4.771731E-01
  4.876917E-01
  4.855891E-01
  4.844920E-01
  4.725079E-01
  4.690298E-01
  4.629801E-01
  4.691899E-01
  4.706907E-01
  4.785111E-01
  4.755874E-01
  4.764783E-01
  4.685384E-01
  4.688921E-01
  4.647115E-01
  4.704575E-01
  4.698933E-01
  4.752820E-01
  4.706440E-01
  4.710243E-01
  4.636491E-01
  4.647952E-01
  4.605621E-01
  4.648067E-01
  4.621748E-01
  4.668705E-01
  4.649048E-01
  4.712458E-01
  4.709708E-01
  4.773408E-01
  4.743148E-01
  4.760028E-01
  4.686030E-01
  4.683447E-01
  4.622779E-01
  4.655548E-01
  4.630201E-01
  4.676659E-01
  4.634954E-01
  4.644585E-01
  4.566804E-01
  4.559631E-01
  4.493658E-01
  4.525008E-01
  4.520421E-01
  4.626800E-01
  4.687768E-01
  4.813100E-01
  4.811358E-01
  4.808402E-01
  4.684476E-01
  4.648221E-01
  4.611299E-01
  4.734054E-01
  4.836314E-01
  4.991779E-01
  4.987571E-01
  4.959373E-01
  4.802618E-01
  4.725373E-01
  4.618689E-01
  4.635057E-01
  4.625010E-01
  4.632580E-01
  4.764795E-01
  4.887052E-01
  4.902535E-01
  4.849210E-01
  4.729866E-01
  4.651836E-01
  4.611046E-01
  4.650449E-01
  4.697886E-01
  4.759375E-01
  4.765650E-01
  4.757869E-01
  4.710597E-01
  4.690693E-01
  4.668744E-01
  4.686848E-01
  4.690842E-01
  4.712413E-01
  4.702264E-01
  4.704883E-01
  4.681241E-01
  4.677381E-01
  4.650862E-01
  4.646504E-01
  4.625985E-01
  4.637677E-01
  4.638823E-01
  4.664815E-01
  4.660795E-01
  4.664092E-01
  4.636851E-01
  4.635878E-01
  4.628899E-01
  4.658657E-01
  4.669701E-01
  4.690278E-01
  4.669865E-01
  4.654900E-01
  4.609956E-01
  4.584520E-01
  4.539249E-01
  4.520592E-01
  4.492435E-01
  4.507974E-01
  4.535265E-01
  4.619205E-01
  4.702081E-01
  4.793178E-01
  4.810985E-01
  4.784137E-01
  4.693002E-01
  4.633333E-01
  4.612131E-01
  4.693444E-01
  4.811669E-01
  4.947554E-01
  4.986782E-01
  4.941442E-01
  4.792865E-01
  4.645844E-01
  4.515518E-01
  4.480637E-01
  4.509794E-01
  4.636388E-01
  4.776218E-01
  4.853364E-01
  4.901317E-01
  4.811013E-01
  4.706334E-01
  4.565183E-01
  4.528094E-01
  4.526844E-01
  4.628690E-01
  4.703652E-01
  4.791221E-01
  4.776397E-01
  4.754523E-01
  4.670890E-01
  4.650517E-01
  4.626956E-01
  4.682106E-01
  4.703807E-01
  4.752135E-01
  4.727819E-01
  4.728407E-01
  4.684778E-01
  4.695323E-01
  4.668327E-01
  4.679685E-01
  4.637120E-01
  4.636012E-01
  4.604664E-01
  4.638607E-01
  4.643437E-01
  4.685813E-01
  4.659865E-01
  4.651332E-01
  4.591184E-01
  4.592298E-01
  4.582891E-01
  4.642199E-01
  4.656958E-01
  4.687535E-01
  4.637995E-01
  4.611189E-01
  4.547383E-01
  4.554654E-01
  4.552544E-01
  4.620425E-01
  4.657640E-01
  4.734727E-01
  4.744593E-01
  4.759077E-01
  4.690820E-01
  4.652712E-01
  4.597488E-01
  4.642897E-01
  4.703139E-01
  4.829467E-01
  4.876978E-01
  4.891570E-01
  4.786906E-01
  4.693576E-01
  4.571883E-01
  4.535793E-01
  4.505775E-01
  4.568656E-01
  4.583648E-01
  4.758384E-01
  4.805743E-01
  4.868414E-01
  4.742745E-01
  4.668251E-01
  4.515843E-01
  4.520287E-01
  4.499110E-01
  4.619510E-01
  4.653142E-01
  4.755479E-01
  4.714875E-01
  4.734451E-01
  4.647612E-01
  4.673723E-01
  4.632478E-01
  4.711300E-01
  4.701751E-01
  4.778716E-01
  4.736497E-01
  4.768625E-01
  4.688246E-01
  4.698169E-01
  4.613432E-01
  4.632781E-01
  4.568784E-01
  4.614306E-01
  4.574514E-01
  4.633890E-01
  4.594030E-01
  4.644209E-01
  4.594780E-01
  4.644633E-01
  4.607055E-01
  4.673716E-01
  4.645547E-01
  4.705431E-01
  4.653543E-01
  4.681737E-01
  4.604094E-01
  4.626725E-01
  4.570951E-01
  4.634369E-01
  4.621443E-01
  4.712489E-01
  4.700727E-01
  4.768456E-01
  4.715215E-01
  4.733603E-01
  4.636280E-01
  4.631706E-01
  4.549718E-01
  4.600654E-01
  4.599447E-01
  4.722174E-01
  4.741571E-01
  4.814660E-01
  4.730179E-01
  4.695249E-01
  4.549237E-01
  4.520131E-01
  4.446041E-01
  4.532032E-01
  4.645000E-01
  4.758762E-01
  4.753835E-01
  4.812096E-01
  4.694037E-01
  4.641750E-01
  4.485496E-01
  4.486722E-01
  4.450401E-01
  4.579449E-01
  4.621491E-01
  4.747994E-01
  4.709829E-01
  4.730567E-01
  4.624131E-01
  4.649791E-01
  4.613901E-01
  4.727925E-01
  4.741237E-01
  4.834907E-01
  4.769256E-01
  4.776128E-01
  4.663820E-01
  4.674427E-01
  4.593907E-01
  4.631071E-01
  4.561855E-01
  4.608109E-01
  4.566102E-01
  4.659506E-01
  4.659225E-01
  4.755453E-01
  4.703480E-01
  4.720738E-01
  4.614223E-01
  4.638656E-01
  4.596945E-01
  4.696584E-01
  4.686309E-01
  4.754576E-01
  4.678028E-01
  4.700157E-01
  4.634455E-01
  4.713308E-01
  4.705773E-01
  4.801204E-01
  4.755147E-01
  4.782852E-01
  4.676302E-01
  4.672363E-01
  4.566859E-01
  4.588945E-01
  4.531102E-01
  4.612119E-01
  4.605096E-01
  4.704005E-01
  4.666865E-01
  4.705099E-01
  4.614115E-01
  4.636250E-01
  4.567482E-01
  4.623443E-01
  4.580674E-01
  4.657458E-01
  4.626194E-01
  4.718350E-01
  4.717934E-01
  4.760299E-01
  4.673141E-01
  4.641672E-01
  4.538756E-01
  4.554102E-01
  4.533579E-01
  4.624090E-01
  4.637657E-01
  4.710608E-01
  4.668085E-01
  4.684639E-01
  4.622319E-01
  4.667094E-01
  4.664066E-01
  4.764269E-01
  4.778600E-01
  4.844126E-01
  4.782365E-01
  4.765702E-01
  4.650966E-01
  4.624210E-01
  4.538174E-01
  4.561105E-01
  4.530560E-01
  4.601404E-01
  4.602086E-01
  4.683714E-01
  4.674400E-01
  4.732322E-01
  4.695170E-01
  4.734852E-01
  4.697491E-01
  4.750188E-01
  4.723179E-01
  4.767887E-01
  4.711837E-01
  4.721389E-01
  4.647992E-01
  4.675236E-01
  4.652620E-01
  4.738028E-01
  4.746927E-01
  4.816566E-01
  4.766882E-01
  4.767129E-01
  4.671644E-01
  4.662770E-01
  4.586289E-01
  4.604359E-01
  4.552351E-01
  4.591303E-01
  4.560331E-01
  4.620065E-01
  4.603050E-01
  4.664288E-01
  4.634102E-01
  4.672040E-01
  4.616617E-01
  4.637304E-01
  4.583767E-01
  4.631997E-01
  4.675545E-01
  4.685557E-01
  4.684193E-01
  4.714178E-01
  4.692212E-01
  4.672503E-01
  4.611421E-01
  4.596747E-01
  4.588705E-01
  4.645466E-01
  4.683780E-01
  4.731756E-01
  4.709603E-01
  4.685954E-01
  4.631579E-01
  4.641385E-01
  4.671738E-01
  4.767621E-01
  4.826622E-01
  4.865312E-01
  4.806358E-01
  4.733733E-01
  4.629757E-01
  4.588332E-01
  4.557426E-01
  4.584046E-01
  4.591761E-01
  4.633030E-01
  4.652414E-01
  4.715229E-01
  4.754355E-01
  4.809448E-01
  4.799423E-01
  4.784129E-01
  4.725601E-01
  4.715006E-01
  4.706655E-01
  4.748381E-01
  4.750687E-01
  4.753995E-01
  4.703998E-01
  4.688832E-01
  4.674173E-01
  4.723213E-01
  4.752589E-01
  4.790906E-01
  4.760484E-01
  4.731014E-01
  4.665144E-01
  4.642558E-01
  4.609350E-01
  4.622795E-01
  4.618304E-01
  4.650115E-01
  4.649136E-01
  4.664450E-01
  4.632249E-01
  4.623736E-01
  4.599539E-01
  4.633398E-01
  4.658568E-01
  4.711207E-01
  4.708983E-01
  4.710697E-01
  4.609596E-01
  4.618290E-01
  4.656709E-01
  4.687045E-01
  4.716783E-01
  4.717341E-01
  4.718166E-01
  4.709074E-01
  4.721506E-01
  4.729929E-01
  4.744837E-01
  4.730033E-01
  4.706025E-01
  4.663914E-01
  4.649590E-01
  4.658050E-01
  4.713073E-01
  4.773318E-01
  4.830022E-01
  4.831286E-01
  4.791591E-01
  4.705637E-01
  4.628207E-01
  4.565376E-01
  4.555054E-01
  4.573890E-01
  4.629939E-01
  4.678425E-01
  4.722852E-01
  4.732369E-01
  4.735131E-01
  4.721269E-01
  4.726674E-01
  4.736089E-01
  4.770520E-01
  4.794689E-01
  4.813157E-01
  4.789362E-01
  4.747332E-01
  4.681358E-01
  4.638966E-01
  4.616238E-01
  4.638706E-01
  4.669756E-01
  4.709868E-01
  4.719046E-01
  4.717971E-01
  4.695937E-01
  4.690412E-01
  4.684252E-01
  4.694694E-01
  4.689322E-01
  4.686427E-01
  4.666394E-01
  4.659403E-01
  4.648705E-01
  4.659102E-01
  4.665730E-01
  4.686060E-01
  4.689893E-01
  4.692945E-01
  4.669164E-01
  4.646023E-01
  4.613665E-01
  4.612803E-01
  4.584395E-01
  4.622628E-01
  4.667356E-01
  4.737023E-01
  4.755641E-01
  4.766465E-01
  4.737880E-01
  4.742490E-01
  4.741585E-01
  4.772570E-01
  4.763243E-01
  4.747433E-01
  4.684017E-01
  4.649927E-01
  4.627785E-01
  4.679519E-01
  4.739897E-01
  4.815729E-01
  4.815864E-01
  4.777246E-01
  4.678265E-01
  4.614776E-01
  4.573922E-01
  4.610637E-01
  4.656536E-01
  4.728316E-01
  4.752859E-01
  4.774323E-01
  4.756005E-01
  4.760947E-01
  4.743870E-01
  4.748408E-01
  4.722962E-01
  4.722730E-01
  4.708776E-01
  4.731082E-01
  4.728483E-01
  4.732983E-01
  4.689915E-01
  4.660277E-01
  4.617344E-01
  4.624712E-01
  4.631576E-01
  4.669838E-01
  4.674692E-01
  4.691620E-01
  4.681036E-01
  4.700643E-01
  4.700984E-01
  4.722967E-01
  4.713628E-01
  4.726473E-01
  4.719956E-01
  4.742147E-01
  4.733975E-01
  4.735063E-01
  4.700552E-01
  4.695357E-01
  4.683988E-01
  4.710833E-01
  4.706543E-01
  4.700626E-01
  4.645307E-01
  4.534223E-01
  4.547510E-01
  4.598511E-01
  4.661010E-01
  4.727511E-01
  4.767840E-01
  4.788200E-01
  4.783327E-01
  4.778437E-01
  4.767973E-01
  4.760999E-01
  4.736406E-01
  4.703843E-01
  4.660621E-01
  4.637602E-01
  4.637501E-01
  4.674399E-01
  4.721281E-01
  4.764828E-01
  4.768278E-01
  4.736593E-01
  4.672329E-01
  4.617168E-01
  4.587007E-01
  4.609575E-01
  4.667889E-01
  4.748487E-01
  4.801773E-01
  4.812124E-01
  4.765596E-01
  4.700409E-01
  4.640306E-01
  4.624336E-01
  4.645551E-01
  4.700081E-01
  4.745352E-01
  4.765168E-01
  4.735826E-01
  4.682126E-01
  4.618403E-01
  4.581859E-01
  4.570109E-01
  4.588790E-01
  4.610092E-01
  4.633891E-01
  4.645933E-01
  4.665816E-01
  4.688055E-01
  4.722652E-01
  4.744636E-01
  4.753019E-01
  4.732651E-01
  4.707968E-01
  4.685573E-01
  4.691973E-01
  4.715548E-01
  4.756640E-01
  4.784612E-01
  4.796471E-01
  4.772891E-01
  4.729131E-01
  4.663024E-01
  4.602031E-01
  4.550361E-01
  4.564693E-01
  4.562818E-01
  4.583141E-01
  4.654931E-01
  4.708367E-01
  4.754684E-01
  4.743048E-01
  4.729339E-01
  4.698451E-01
  4.706930E-01
  4.708577E-01
  4.723898E-01
  4.694995E-01
  4.664259E-01
  4.612308E-01
  4.607164E-01
  4.623416E-01
  4.691748E-01
  4.739039E-01
  4.770108E-01
  4.729680E-01
  4.677662E-01
  4.612519E-01
  4.608970E-01
  4.636534E-01
  4.718081E-01
  4.778105E-01
  4.824595E-01
  4.804329E-01
  4.771892E-01
  4.711453E-01
  4.682203E-01
  4.647609E-01
  4.644726E-01
  4.630428E-01
  4.645087E-01
  4.645636E-01
  4.665137E-01
  4.653994E-01
  4.650186E-01
  4.620007E-01
  4.615970E-01
  4.605694E-01
  4.628640E-01
  4.636982E-01
  4.665644E-01
  4.674003E-01
  4.704228E-01
  4.711198E-01
  4.725572E-01
  4.700367E-01
  4.684537E-01
  4.657730E-01
  4.678632E-01
  4.707541E-01
  4.766546E-01
  4.789872E-01
  4.805498E-01
  4.778263E-01
  4.764078E-01
  4.729594E-01
  4.710873E-01
  4.659100E-01
  4.617882E-01
  4.541102E-01
  4.577722E-01
  4.595158E-01
  4.658264E-01
  4.680900E-01
  4.726237E-01
  4.713867E-01
  4.722750E-01
  4.687672E-01
  4.691209E-01
  4.659643E-01
  4.663785E-01
  4.626775E-01
  4.627696E-01
  4.601906E-01
  4.631990E-01
  4.644593E-01
  4.706024E-01
  4.726274E-01
  4.762884E-01
  4.729775E-01
  4.705568E-01
  4.633701E-01
  4.614919E-01
  4.596713E-01
  4.658322E-01
  4.706804E-01
  4.780539E-01
  4.771079E-01
  4.746161E-01
  4.654450E-01
  4.609784E-01
  4.567513E-01
  4.607383E-01
  4.636427E-01
  4.697741E-01
  4.691413E-01
  4.687708E-01
  4.628370E-01
  4.612137E-01
  4.580740E-01
  4.609472E-01
  4.613478E-01
  4.654424E-01
  4.651785E-01
  4.682612E-01
  4.677594E-01
  4.711940E-01
  4.703366E-01
  4.716309E-01
  4.671910E-01
  4.653607E-01
  4.605322E-01
  4.620017E-01
  4.632021E-01
  4.708806E-01
  4.754930E-01
  4.819465E-01
  4.807956E-01
  4.792492E-01
  4.710553E-01
  4.658528E-01
  4.581527E-01
  4.565997E-01
  4.634266E-01
  4.638552E-01
  4.624781E-01
  4.662653E-01
  4.670395E-01
  4.699824E-01
  4.673619E-01
  4.668123E-01
  4.630080E-01
  4.640111E-01
  4.628197E-01
  4.651892E-01
  4.631412E-01
  4.635257E-01
  4.606370E-01
  4.630062E-01
  4.647347E-01
  4.720971E-01
  4.759542E-01
  4.804825E-01
  4.770817E-01
  4.733945E-01
  4.651286E-01
  4.622660E-01
  4.596888E-01
  4.639558E-01
  4.662495E-01
  4.710810E-01
  4.701411E-01
  4.706456E-01
  4.669820E-01
  4.671369E-01
  4.643464E-01
  4.650904E-01
  4.623322E-01
  4.633620E-01
  4.618258E-01
  4.646557E-01
  4.643428E-01
  4.670302E-01
  4.656070E-01
  4.674438E-01
  4.662944E-01
  4.692214E-01
  4.688439E-01
  4.714026E-01
  4.695831E-01
  4.702656E-01
  4.665882E-01
  4.656108E-01
  4.609889E-01
  4.607912E-01
  4.594698E-01
  4.643811E-01
  4.676154E-01
  4.737991E-01
  4.738675E-01
  4.742322E-01
  4.693380E-01
  4.682803E-01
  4.654302E-01
  4.673829E-01
  4.659026E-01
  4.668248E-01
  4.664119E-01
  4.689804E-01
  4.675837E-01
  4.678043E-01
  4.663201E-01
  4.680125E-01
  4.678305E-01
  4.693864E-01
  4.675490E-01
  4.668092E-01
  4.632085E-01
  4.621148E-01
  4.599331E-01
  4.617684E-01
  4.632018E-01
  4.681493E-01
  4.712275E-01
  4.762188E-01
  4.781241E-01
  4.808822E-01
  4.789890E-01
  4.762262E-01
  4.684218E-01
  4.620695E-01
  4.554782E-01
  4.551564E-01
  4.565816E-01
  4.619494E-01
  4.637171E-01
  4.646888E-01
  4.612254E-01
  4.604200E-01
  4.600125E-01
  4.647235E-01
  4.682213E-01
  4.723992E-01
  4.711626E-01
  4.694934E-01
  4.648597E-01
  4.638043E-01
  4.627665E-01
  4.658734E-01
  4.674847E-01
  4.708957E-01
  4.708191E-01
  4.715773E-01
  4.688919E-01
  4.677597E-01
  4.642232E-01
  4.633448E-01
  4.611081E-01
  4.622536E-01
  4.621949E-01
  4.649888E-01
  4.655935E-01
  4.680200E-01
  4.673383E-01
  4.676905E-01
  4.644271E-01
  4.625738E-01
  4.589191E-01
  4.593804E-01
  4.600285E-01
  4.644627E-01
  4.788587E-01
  4.770517E-01
  4.723224E-01
  4.689640E-01
  4.665515E-01
  4.665994E-01
  4.663815E-01
  4.668042E-01
  4.658849E-01
  4.655457E-01
  4.643259E-01
  4.641575E-01
  4.635142E-01
  4.644175E-01
  4.654482E-01
  4.684976E-01
  4.716893E-01
  4.762123E-01
  4.793456E-01
  4.815863E-01
  4.800800E-01
  4.762934E-01
  4.694345E-01
  4.631785E-01
  4.577067E-01
  4.556810E-01
  4.551132E-01
  4.567740E-01
  4.581484E-01
  4.607982E-01
  4.631929E-01
  4.668990E-01
  4.692991E-01
  4.710008E-01
  4.698405E-01
  4.683328E-01
  4.661990E-01
  4.661874E-01
  4.664491E-01
  4.678838E-01
  4.681900E-01
  4.693181E-01
  4.700548E-01
  4.720586E-01
  4.725795E-01
  4.721099E-01
  4.685053E-01
  4.644303E-01
  4.598947E-01
  4.582792E-01
  4.587459E-01
  4.628608E-01
  4.676409E-01
  4.726898E-01
  4.739871E-01
  4.719103E-01
  4.651625E-01
  4.578109E-01
  4.513604E-01
  4.501949E-01
  4.535100E-01
  4.617633E-01
  4.702476E-01
  4.772518E-01
  4.810132E-01
  4.807157E-01
  4.761036E-01
  4.697492E-01
  4.656338E-01
  4.646821E-01
  4.667785E-01
  4.691306E-01
  4.702077E-01
  4.684937E-01
  4.654073E-01
  4.622266E-01
  4.614412E-01
  4.632003E-01
  4.673414E-01
  4.713381E-01
  4.740780E-01
  4.745966E-01
  4.746245E-01
  4.747278E-01
  4.753631E-01
  4.743002E-01
  4.706446E-01
  4.640619E-01
  4.575066E-01
  4.531105E-01
  4.527259E-01
  4.547323E-01
  4.575124E-01
  4.588916E-01
  4.598567E-01
  4.615086E-01
  4.657056E-01
  4.711452E-01
  4.760814E-01
  4.774201E-01
  4.750202E-01
  4.696885E-01
  4.646627E-01
  4.615149E-01
  4.617060E-01
  4.641016E-01
  4.679316E-01
  4.708347E-01
  4.719174E-01
  4.698427E-01
  4.657882E-01
  4.608246E-01
  4.577137E-01
  4.574610E-01
  4.609955E-01
  4.663813E-01
  4.716844E-01
  4.737150E-01
  4.720136E-01
  4.668795E-01
  4.610569E-01
  4.557725E-01
  4.525725E-01
  4.513266E-01
  4.533380E-01
  4.586006E-01
  4.670804E-01
  4.755281E-01
  4.879300E-01
  4.827386E-01
  4.766908E-01
  4.684145E-01
  4.650152E-01
  4.621505E-01
  4.635894E-01
  4.632327E-01
  4.648660E-01
  4.634839E-01
  4.642011E-01
  4.628833E-01
  4.647395E-01
  4.650079E-01
  4.678672E-01
  4.677760E-01
  4.691311E-01
  4.675247E-01
  4.685426E-01
  4.679516E-01
  4.701973E-01
  4.695203E-01
  4.697850E-01
  4.661745E-01
  4.643297E-01
  4.605411E-01
  4.601196E-01
  4.584105E-01
  4.602301E-01
  4.611983E-01
  4.662958E-01
  4.701543E-01
  4.758291E-01
  4.765346E-01
  4.761623E-01
  4.708843E-01
  4.677036E-01
  4.636410E-01
  4.638358E-01
  4.628734E-01
  4.649124E-01
  4.652918E-01
  4.689072E-01
  4.702465E-01
  4.723511E-01
  4.689050E-01
  4.648501E-01
  4.575181E-01
  4.545173E-01
  4.532302E-01
  4.587318E-01
  4.648336E-01
  4.734443E-01
  4.767110E-01
  4.775067E-01
  4.711111E-01
  4.643115E-01
  4.553582E-01
  4.519078E-01
  4.511564E-01
  4.581611E-01
  4.667380E-01
  4.785087E-01
  4.848792E-01
  4.808343E-01
  4.772927E-01
  4.752938E-01
  4.663122E-01
  4.640914E-01
  4.595161E-01
  4.629753E-01
  4.619915E-01
  4.654420E-01
  4.618120E-01
  4.626126E-01
  4.587818E-01
  4.624122E-01
  4.627485E-01
  4.688849E-01
  4.676578E-01
  4.685577E-01
  4.617760E-01
  4.608853E-01
  4.577228E-01
  4.633736E-01
  4.650139E-01
  4.704222E-01
  4.672872E-01
  4.674502E-01
  4.624822E-01
  4.647377E-01
  4.631239E-01
  4.669411E-01
  4.645285E-01
  4.673581E-01
  4.661992E-01
  4.725206E-01
  4.742600E-01
  4.797549E-01
  4.760724E-01
  4.739906E-01
  4.646113E-01
  4.614850E-01
  4.559991E-01
  4.595624E-01
  4.607448E-01
  4.684605E-01
  4.695692E-01
  4.728777E-01
  4.669027E-01
  4.637570E-01
  4.552758E-01
  4.548301E-01
  4.532017E-01
  4.606314E-01
  4.643047E-01
  4.720588E-01
  4.710497E-01
  4.722087E-01
  4.666433E-01
  4.673096E-01
  4.641143E-01
  4.670375E-01
  4.643954E-01
  4.672846E-01
  4.662573E-01
  4.728245E-01
  4.749679E-01
  4.785631E-01
  4.717884E-01
  4.722469E-01
  4.641236E-01
  4.650935E-01
  4.585607E-01
  4.611079E-01
  4.557936E-01
  4.593817E-01
  4.553908E-01
  4.608144E-01
  4.589577E-01
  4.661189E-01
  4.645211E-01
  4.697040E-01
  4.639761E-01
  4.645848E-01
  4.563142E-01
  4.579357E-01
  4.540280E-01
  4.611912E-01
  4.614721E-01
  4.699636E-01
  4.686860E-01
  4.743353E-01
  4.703854E-01
  4.741075E-01
  4.689209E-01
  4.723546E-01
  4.685313E-01
  4.749683E-01
  4.741264E-01
  4.808968E-01
  4.761719E-01
  4.763239E-01
  4.659934E-01
  4.648101E-01
  4.578413E-01
  4.619954E-01
  4.595538E-01
  4.663884E-01
  4.655048E-01
  4.734161E-01
  4.720238E-01
  4.763798E-01
  4.684449E-01
  4.661439E-01
  4.553226E-01
  4.555189E-01
  4.514520E-01
  4.592914E-01
  4.605967E-01
  4.700641E-01
  4.695039E-01
  4.755593E-01
  4.718782E-01
  4.760504E-01
  4.715448E-01
  4.754253E-01
  4.709646E-01
  4.755151E-01
  4.724206E-01
  4.782147E-01
  4.749637E-01
  4.667814E-01
  4.651012E-01
  4.704480E-01
  4.647463E-01
  4.667230E-01
  4.603121E-01
  4.636989E-01
  4.590057E-01
  4.629203E-01
  4.576508E-01
  4.612504E-01
  4.573578E-01
  4.640741E-01
  4.632843E-01
  4.705967E-01
  4.662771E-01
  4.672140E-01
  4.574399E-01
  4.575578E-01
  4.526972E-01
  4.605580E-01
  4.616991E-01
  4.707391E-01
  4.685180E-01
  4.732387E-01
  4.689857E-01
  4.743427E-01
  4.710699E-01
  4.755104E-01
  4.696139E-01
  4.721243E-01
  4.671069E-01
  4.727964E-01
  4.704902E-01
  4.758160E-01
  4.696589E-01
  4.698142E-01
  4.604132E-01
  4.612495E-01
  4.565583E-01
  4.641669E-01
  4.655580E-01
  4.760432E-01
  4.753487E-01
  4.793413E-01
  4.704028E-01
  4.683257E-01
  4.583899E-01
  4.601697E-01