# vtk DataFile Version 2.0
title
ASCII
DATASET STRUCTURED_GRID
DIMENSIONS   64   64    1
POINTS   4096  float
  0.000000E+00  0.000000E+00  0.000000E+00
  0.000000E+00  3.906250E-01  0.000000E+00
  0.000000E+00  7.812500E-01  0.000000E+00
  0.000000E+00  1.171875E+00  0.000000E+00
  0.000000E+00  1.562500E+00  0.000000E+00
  0.000000E+00  1.953125E+00  0.000000E+00
  0.000000E+00  2.343750E+00  0.000000E+00
  0.000000E+00  2.734375E+00  0.000000E+00
  0.000000E+00  3.125000E+00  0.000000E+00
  0.000000E+00  3.515625E+00  0.000000E+00
  0.000000E+00  3.906250E+00  0.000000E+00
  0.000000E+00  4.296875E+00  0.000000E+00
  0.000000E+00  4.687500E+00  0.000000E+00
  0.000000E+00  5.078125E+00  0.000000E+00
  0.000000E+00  5.468750E+00  0.000000E+00
  0.000000E+00  5.859375E+00  0.000000E+00
  0.000000E+00  6.250000E+00  0.000000E+00
  0.000000E+00  6.640625E+00  0.000000E+00
  0.000000E+00  7.031250E+00  0.000000E+00
  0.000000E+00  7.421875E+00  0.000000E+00
  0.000000E+00  7.812500E+00  0.000000E+00
  0.000000E+00  8.203125E+00  0.000000E+00
  0.000000E+00  8.593750E+00  0.000000E+00
  0.000000E+00  8.984375E+00  0.000000E+00
  0.000000E+00  9.375000E+00  0.000000E+00
  0.000000E+00  9.765625E+00  0.000000E+00
  0.000000E+00  1.015625E+01  0.000000E+00
  0.000000E+00  1.054688E+01  0.000000E+00
  0.000000E+00  1.093750E+01  0.000000E+00
  0.000000E+00  1.132812E+01  0.000000E+00
  0.000000E+00  1.171875E+01  0.000000E+00
  0.000000E+00  1.210938E+01  0.000000E+00
  0.000000E+00  1.250000E+01  0.000000E+00
  0.000000E+00  1.289062E+01  0.000000E+00
  0.000000E+00  1.328125E+01  0.000000E+00
  0.000000E+00  1.367188E+01  0.000000E+00
  0.000000E+00  1.406250E+01  0.000000E+00
  0.000000E+00  1.445312E+01  0.000000E+00
  0.000000E+00  1.484375E+01  0.000000E+00
  0.000000E+00  1.523438E+01  0.000000E+00
  0.000000E+00  1.562500E+01  0.000000E+00
  0.000000E+00  1.601562E+01  0.000000E+00
  0.000000E+00  1.640625E+01  0.000000E+00
  0.000000E+00  1.679688E+01  0.000000E+00
  0.000000E+00  1.718750E+01  0.000000E+00
  0.000000E+00  1.757812E+01  0.000000E+00
  0.000000E+00  1.796875E+01  0.000000E+00
  0.000000E+00  1.835938E+01  0.000000E+00
  0.000000E+00  1.875000E+01  0.000000E+00
  0.000000E+00  1.914062E+01  0.000000E+00
  0.000000E+00  1.953125E+01  0.000000E+00
  0.000000E+00  1.992188E+01  0.000000E+00
  0.000000E+00  2.031250E+01  0.000000E+00
  0.000000E+00  2.070312E+01  0.000000E+00
  0.000000E+00  2.109375E+01  0.000000E+00
  0.000000E+00  2.148438E+01  0.000000E+00
  0.000000E+00  2.187500E+01  0.000000E+00
  0.000000E+00  2.226562E+01  0.000000E+00
  0.000000E+00  2.265625E+01  0.000000E+00
  0.000000E+00  2.304688E+01  0.000000E+00
  0.000000E+00  2.343750E+01  0.000000E+00
  0.000000E+00  2.382812E+01  0.000000E+00
  0.000000E+00  2.421875E+01  0.000000E+00
  0.000000E+00  2.460938E+01  0.000000E+00
  3.906250E-01  0.000000E+00  0.000000E+00
  3.906250E-01  3.906250E-01  0.000000E+00
  3.906250E-01  7.812500E-01  0.000000E+00
  3.906250E-01  1.171875E+00  0.000000E+00
  3.906250E-01  1.562500E+00  0.000000E+00
  3.906250E-01  1.953125E+00  0.000000E+00
  3.906250E-01  2.343750E+00  0.000000E+00
  3.906250E-01  2.734375E+00  0.000000E+00
  3.906250E-01  3.125000E+00  0.000000E+00
  3.906250E-01  3.515625E+00  0.000000E+00
  3.906250E-01  3.906250E+00  0.000000E+00
  3.906250E-01  4.296875E+00  0.000000E+00
  3.906250E-01  4.687500E+00  0.000000E+00
  3.906250E-01  5.078125E+00  0.000000E+00
  3.906250E-01  5.468750E+00  0.000000E+00
  3.906250E-01  5.859375E+00  0.000000E+00
  3.906250E-01  6.250000E+00  0.000000E+00
  3.906250E-01  6.640625E+00  0.000000E+00
  3.906250E-01  7.031250E+00  0.000000E+00
  3.906250E-01  7.421875E+00  0.000000E+00
  3.906250E-01  7.812500E+00  0.000000E+00
  3.906250E-01  8.203125E+00  0.000000E+00
  3.906250E-01  8.593750E+00  0.000000E+00
  3.906250E-01  8.984375E+00  0.000000E+00
  3.906250E-01  9.375000E+00  0.000000E+00
  3.906250E-01  9.765625E+00  0.000000E+00
  3.906250E-01  1.015625E+01  0.000000E+00
  3.906250E-01  1.054688E+01  0.000000E+00
  3.906250E-01  1.093750E+01  0.000000E+00
  3.906250E-01  1.132812E+01  0.000000E+00
  3.906250E-01  1.171875E+01  0.000000E+00
  3.906250E-01  1.210938E+01  0.000000E+00
  3.906250E-01  1.250000E+01  0.000000E+00
  3.906250E-01  1.289062E+01  0.000000E+00
  3.906250E-01  1.328125E+01  0.000000E+00
  3.906250E-01  1.367188E+01  0.000000E+00
  3.906250E-01  1.406250E+01  0.000000E+00
  3.906250E-01  1.445312E+01  0.000000E+00
  3.906250E-01  1.484375E+01  0.000000E+00
  3.906250E-01  1.523438E+01  0.000000E+00
  3.906250E-01  1.562500E+01  0.000000E+00
  3.906250E-01  1.601562E+01  0.000000E+00
  3.906250E-01  1.640625E+01  0.000000E+00
  3.906250E-01  1.679688E+01  0.000000E+00
  3.906250E-01  1.718750E+01  0.000000E+00
  3.906250E-01  1.757812E+01  0.000000E+00
  3.906250E-01  1.796875E+01  0.000000E+00
  3.906250E-01  1.835938E+01  0.000000E+00
  3.906250E-01  1.875000E+01  0.000000E+00
  3.906250E-01  1.914062E+01  0.000000E+00
  3.906250E-01  1.953125E+01  0.000000E+00
  3.906250E-01  1.992188E+01  0.000000E+00
  3.906250E-01  2.031250E+01  0.000000E+00
  3.906250E-01  2.070312E+01  0.000000E+00
  3.906250E-01  2.109375E+01  0.000000E+00
  3.906250E-01  2.148438E+01  0.000000E+00
  3.906250E-01  2.187500E+01  0.000000E+00
  3.906250E-01  2.226562E+01  0.000000E+00
  3.906250E-01  2.265625E+01  0.000000E+00
  3.906250E-01  2.304688E+01  0.000000E+00
  3.906250E-01  2.343750E+01  0.000000E+00
  3.906250E-01  2.382812E+01  0.000000E+00
  3.906250E-01  2.421875E+01  0.000000E+00
  3.906250E-01  2.460938E+01  0.000000E+00
  7.812500E-01  0.000000E+00  0.000000E+00
  7.812500E-01  3.906250E-01  0.000000E+00
  7.812500E-01  7.812500E-01  0.000000E+00
  7.812500E-01  1.171875E+00  0.000000E+00
  7.812500E-01  1.562500E+00  0.000000E+00
  7.812500E-01  1.953125E+00  0.000000E+00
  7.812500E-01  2.343750E+00  0.000000E+00
  7.812500E-01  2.734375E+00  0.000000E+00
  7.812500E-01  3.125000E+00  0.000000E+00
  7.812500E-01  3.515625E+00  0.000000E+00
  7.812500E-01  3.906250E+00  0.000000E+00
  7.812500E-01  4.296875E+00  0.000000E+00
  7.812500E-01  4.687500E+00  0.000000E+00
  7.812500E-01  5.078125E+00  0.000000E+00
  7.812500E-01  5.468750E+00  0.000000E+00
  7.812500E-01  5.859375E+00  0.000000E+00
  7.812500E-01  6.250000E+00  0.000000E+00
  7.812500E-01  6.640625E+00  0.000000E+00
  7.812500E-01  7.031250E+00  0.000000E+00
  7.812500E-01  7.421875E+00  0.000000E+00
  7.812500E-01  7.812500E+00  0.000000E+00
  7.812500E-01  8.203125E+00  0.000000E+00
  7.812500E-01  8.593750E+00  0.000000E+00
  7.812500E-01  8.984375E+00  0.000000E+00
  7.812500E-01  9.375000E+00  0.000000E+00
  7.812500E-01  9.765625E+00  0.000000E+00
  7.812500E-01  1.015625E+01  0.000000E+00
  7.812500E-01  1.054688E+01  0.000000E+00
  7.812500E-01  1.093750E+01  0.000000E+00
  7.812500E-01  1.132812E+01  0.000000E+00
  7.812500E-01  1.171875E+01  0.000000E+00
  7.812500E-01  1.210938E+01  0.000000E+00
  7.812500E-01  1.250000E+01  0.000000E+00
  7.812500E-01  1.289062E+01  0.000000E+00
  7.812500E-01  1.328125E+01  0.000000E+00
  7.812500E-01  1.367188E+01  0.000000E+00
  7.812500E-01  1.406250E+01  0.000000E+00
  7.812500E-01  1.445312E+01  0.000000E+00
  7.812500E-01  1.484375E+01  0.000000E+00
  7.812500E-01  1.523438E+01  0.000000E+00
  7.812500E-01  1.562500E+01  0.000000E+00
  7.812500E-01  1.601562E+01  0.000000E+00
  7.812500E-01  1.640625E+01  0.000000E+00
  7.812500E-01  1.679688E+01  0.000000E+00
  7.812500E-01  1.718750E+01  0.000000E+00
  7.812500E-01  1.757812E+01  0.000000E+00
  7.812500E-01  1.796875E+01  0.000000E+00
  7.812500E-01  1.835938E+01  0.000000E+00
  7.812500E-01  1.875000E+01  0.000000E+00
  7.812500E-01  1.914062E+01  0.000000E+00
  7.812500E-01  1.953125E+01  0.000000E+00
  7.812500E-01  1.992188E+01  0.000000E+00
  7.812500E-01  2.031250E+01  0.000000E+00
  7.812500E-01  2.070312E+01  0.000000E+00
  7.812500E-01  2.109375E+01  0.000000E+00
  7.812500E-01  2.148438E+01  0.000000E+00
  7.812500E-01  2.187500E+01  0.000000E+00
  7.812500E-01  2.226562E+01  0.000000E+00
  7.812500E-01  2.265625E+01  0.000000E+00
  7.812500E-01  2.304688E+01  0.000000E+00
  7.812500E-01  2.343750E+01  0.000000E+00
  7.812500E-01  2.382812E+01  0.000000E+00
  7.812500E-01  2.421875E+01  0.000000E+00
  7.812500E-01  2.460938E+01  0.000000E+00
  1.171875E+00  0.000000E+00  0.000000E+00
  1.171875E+00  3.906250E-01  0.000000E+00
  1.171875E+00  7.812500E-01  0.000000E+00
  1.171875E+00  1.171875E+00  0.000000E+00
  1.171875E+00  1.562500E+00  0.000000E+00
  1.171875E+00  1.953125E+00  0.000000E+00
  1.171875E+00  2.343750E+00  0.000000E+00
  1.171875E+00  2.734375E+00  0.000000E+00
  1.171875E+00  3.125000E+00  0.000000E+00
  1.171875E+00  3.515625E+00  0.000000E+00
  1.171875E+00  3.906250E+00  0.000000E+00
  1.171875E+00  4.296875E+00  0.000000E+00
  1.171875E+00  4.687500E+00  0.000000E+00
  1.171875E+00  5.078125E+00  0.000000E+00
  1.171875E+00  5.468750E+00  0.000000E+00
  1.171875E+00  5.859375E+00  0.000000E+00
  1.171875E+00  6.250000E+00  0.000000E+00
  1.171875E+00  6.640625E+00  0.000000E+00
  1.171875E+00  7.031250E+00  0.000000E+00
  1.171875E+00  7.421875E+00  0.000000E+00
  1.171875E+00  7.812500E+00  0.000000E+00
  1.171875E+00  8.203125E+00  0.000000E+00
  1.171875E+00  8.593750E+00  0.000000E+00
  1.171875E+00  8.984375E+00  0.000000E+00
  1.171875E+00  9.375000E+00  0.000000E+00
  1.171875E+00  9.765625E+00  0.000000E+00
  1.171875E+00  1.015625E+01  0.000000E+00
  1.171875E+00  1.054688E+01  0.000000E+00
  1.171875E+00  1.093750E+01  0.000000E+00
  1.171875E+00  1.132812E+01  0.000000E+00
  1.171875E+00  1.171875E+01  0.000000E+00
  1.171875E+00  1.210938E+01  0.000000E+00
  1.171875E+00  1.250000E+01  0.000000E+00
  1.171875E+00  1.289062E+01  0.000000E+00
  1.171875E+00  1.328125E+01  0.000000E+00
  1.171875E+00  1.367188E+01  0.000000E+00
  1.171875E+00  1.406250E+01  0.000000E+00
  1.171875E+00  1.445312E+01  0.000000E+00
[...]
POINT_DATA   4096
SCALARS CON  float  1
LOOKUP_TABLE default
  4.711119E-01
  4.706183E-01
  4.762775E-01
  4.736879E-01
  4.741118E-01
  4.676505E-01
  4.693414E-01
  4.681246E-01
  4.739020E-01
  4.718788E-01
  4.731692E-01
  4.671995E-01
  4.679276E-01
  4.643110E-01
  4.681733E-01
  4.671592E-01
  4.726395E-01
  4.715832E-01
  4.747802E-01
  4.698570E-01
  4.698434E-01
  4.642559E-01
  4.656988E-01
  4.617266E-01
  4.635735E-01
  4.596237E-01
  4.631088E-01
  4.631412E-01
  4.707901E-01
  4.714026E-01
  4.745843E-01
  4.686860E-01
  4.687600E-01
  4.655994E-01
  4.709714E-01
  4.701275E-01
  4.725923E-01
  4.665888E-01
  4.663505E-01
  4.617424E-01
  4.646397E-01
  4.619054E-01
  4.645637E-01
  4.606949E-01
  4.628494E-01
  4.600916E-01
  4.653928E-01
  4.671961E-01
  4.759035E-01
  4.762058E-01
  4.774688E-01
  4.683267E-01
  4.648336E-01
  4.594598E-01
  4.659263E-01
  4.706283E-01
  4.812816E-01
  4.817989E-01
  4.832369E-01
  4.757466E-01
  4.744780E-01
  4.688738E-01
  4.705829E-01
  4.671908E-01
  4.710835E-01
  4.722175E-01
  4.797280E-01
  4.794548E-01
  4.790216E-01
  4.700977E-01
  4.675388E-01
  4.641571E-01
  4.690764E-01
  4.691358E-01
  4.726537E-01
  4.698194E-01
  4.716756E-01
  4.680791E-01
  4.690522E-01
  4.654577E-01
  4.689369E-01
  4.693761E-01
  4.747143E-01
  4.722220E-01
  4.717437E-01
  4.652899E-01
  4.655286E-01
  4.630403E-01
  4.666653E-01
  4.647528E-01
  4.672039E-01
  4.649919E-01
  4.691288E-01
  4.689299E-01
  4.729340E-01
  4.699835E-01
  4.708726E-01
  4.668281E-01
  4.685873E-01
  4.655459E-01
  4.673802E-01
  4.643029E-01
  4.669522E-01
  4.647449E-01
  4.665830E-01
  4.618535E-01
  4.616411E-01
  4.572804E-01
  4.594360E-01
  4.580254E-01
  4.635052E-01
  4.663320E-01
  4.754311E-01
  4.770807E-01
  4.782540E-01
  4.695087E-01
  4.659827E-01
  4.626659E-01
  4.708820E-01
  4.770834E-01
  4.858513E-01
  4.833915E-01
  4.809689E-01
  4.724525E-01
  4.714209E-01
  4.679369E-01
  4.703197E-01
  4.675528E-01
  4.638764E-01
  4.713010E-01
  4.800900E-01
  4.819249E-01
  4.791240E-01
  4.709754E-01
  4.663701E-01
  4.642357E-01
  4.674726E-01
  4.695738E-01
  4.724336E-01
  4.719215E-01
  4.723284E-01
  4.701696E-01
  4.696767E-01
  4.678646E-01
  4.693353E-01
  4.700763E-01
  4.726221E-01
  4.718016E-01
  4.712590E-01
  4.681499E-01
  4.674204E-01
  4.656168E-01
  4.661708E-01
  4.648001E-01
  4.653193E-01
  4.643097E-01
  4.657075E-01
  4.651147E-01
  4.655850E-01
  4.634437E-01
  4.638428E-01
  4.642186E-01
  4.679596E-01
  4.692025E-01
  4.700521E-01
  4.670187E-01
  4.657272E-01
  4.634780E-01
  4.634830E-01
  4.607738E-01
  4.591125E-01
  4.559599E-01
  4.565115E-01
  4.576271E-01
  4.630020E-01
  4.681397E-01
  4.750985E-01
  4.773297E-01
  4.767681E-01
  4.705757E-01
  4.663867E-01
  4.642785E-01
  4.693805E-01
  4.758026E-01
  4.830847E-01
  4.835808E-01
  4.803477E-01
  4.718205E-01
  4.651407E-01
  4.587138E-01
  4.572691E-01
  4.575831E-01
  4.632164E-01
  4.719306E-01
  4.784831E-01
  4.826230E-01
  4.771196E-01
  4.695597E-01
  4.609179E-01
  4.596889E-01
  4.609926E-01
  4.668218E-01
  4.700206E-01
  4.741466E-01
  4.739552E-01
  4.738122E-01
  4.695016E-01
  4.677204E-01
  4.660137E-01
  4.695456E-01
  4.716451E-01
  4.743657E-01
  4.720109E-01
  4.706613E-01
  4.676936E-01
  4.687681E-01
  4.684049E-01
  4.697597E-01
  4.672097E-01
  4.660096E-01
  4.630278E-01
  4.641983E-01
  4.646337E-01
  4.675835E-01
  4.669643E-01
  4.672448E-01
  4.645027E-01
  4.644712E-01
  4.632134E-01
  4.656936E-01
  4.666027E-01
  4.690100E-01
  4.666069E-01
  4.643169E-01
  4.597403E-01
  4.599450E-01
  4.605377E-01
  4.645722E-01
  4.659769E-01
  4.695986E-01
  4.710432E-01
  4.738541E-01
  4.715039E-01
  4.689509E-01
  4.645628E-01
  4.664528E-01
  4.705060E-01
  4.783970E-01
  4.809675E-01
  4.805106E-01
  4.734358E-01
  4.678158E-01
  4.615894E-01
  4.600201E-01
  4.579038E-01
  4.601276E-01
  4.602105E-01
  4.712900E-01
  4.749823E-01
  4.793065E-01
  4.714349E-01
  4.668466E-01
  4.581236E-01
  4.596693E-01
  4.591476E-01
  4.664598E-01
  4.676377E-01
  4.733148E-01
  4.708491E-01
  4.725390E-01
  4.674719E-01
  4.691498E-01
  4.664338E-01
  4.710057E-01
  4.697785E-01
  4.738031E-01
  4.707004E-01
  4.726841E-01
  4.679935E-01
  4.690098E-01
  4.641931E-01
  4.658457E-01
  4.619215E-01
  4.641900E-01
  4.608032E-01
  4.640450E-01
  4.619548E-01
  4.659465E-01
  4.635413E-01
  4.668686E-01
  4.643698E-01
  4.680386E-01
  4.655100E-01
  4.686398E-01
  4.656077E-01
  4.682257E-01
  4.639094E-01
  4.647598E-01
  4.602386E-01
  4.639972E-01
  4.641973E-01
  4.708625E-01
  4.697841E-01
  4.725854E-01
  4.683765E-01
  4.700955E-01
  4.655841E-01
  4.666267E-01
  4.620181E-01
  4.651073E-01
  4.646218E-01
  4.716660E-01
  4.722026E-01
  4.763440E-01
  4.713039E-01
  4.698174E-01
  4.612985E-01
  4.593493E-01
  4.536916E-01
  4.577560E-01
  4.650781E-01
  4.720493E-01
  4.722448E-01
  4.762737E-01
  4.685004E-01
  4.649690E-01
  4.556085E-01
  4.570112E-01
  4.555213E-01
  4.633571E-01
  4.646602E-01
  4.717227E-01
  4.694351E-01
  4.715983E-01
  4.654213E-01
  4.671319E-01
  4.645492E-01
  4.713975E-01
  4.716113E-01
  4.769080E-01
  4.724411E-01
  4.731241E-01
  4.664223E-01
  4.674415E-01
  4.626026E-01
  4.655040E-01
  4.615647E-01
  4.644693E-01
  4.611122E-01
  4.665891E-01
  4.669083E-01
  4.739051E-01
  4.709520E-01
  4.714540E-01
  4.635370E-01
  4.642256E-01
  4.612726E-01
  4.679713E-01
  4.680572E-01
  4.729006E-01
  4.674535E-01
  4.674325E-01
  4.624096E-01
  4.685912E-01
  4.706341E-01
  4.782424E-01
  4.742040E-01
  4.734451E-01
  4.653487E-01
  4.661409E-01
  4.614937E-01
  4.641356E-01
  4.602228E-01
  4.646950E-01
  4.638244E-01
  4.700764E-01
  4.677023E-01
  4.703430E-01
  4.653264E-01
  4.680988E-01
  4.648552E-01
  4.685234E-01
  4.644443E-01
  4.673633E-01
  4.643725E-01
  4.698063E-01
  4.694441E-01
  4.722011E-01
  4.667215E-01
  4.655807E-01
  4.598429E-01
  4.615384E-01
  4.598177E-01
  4.649351E-01
  4.648867E-01
  4.693209E-01
  4.665048E-01
  4.679644E-01
  4.643510E-01
  4.680360E-01
  4.681058E-01
  4.742041E-01
  4.737867E-01
  4.770960E-01
  4.731156E-01
  4.730980E-01
  4.662498E-01
  4.643367E-01
  4.579308E-01
  4.592820E-01
  4.575794E-01
  4.626402E-01
  4.625713E-01
  4.680904E-01
  4.681519E-01
  4.728782E-01
  4.702635E-01
  4.715788E-01
  4.674129E-01
  4.700791E-01
  4.684618E-01
  4.723118E-01
  4.695434E-01
  4.707718E-01
  4.654575E-01
  4.659405E-01
  4.631595E-01
  4.691109E-01
  4.715971E-01
  4.782244E-01
  4.751232E-01
  4.737113E-01
  4.659763E-01
  4.655693E-01
  4.618743E-01
  4.644828E-01
  4.613681E-01
  4.635031E-01
  4.605867E-01
  4.638596E-01
  4.622744E-01
  4.665578E-01
  4.655416E-01
  4.697078E-01
  4.673551E-01
  4.690503E-01
  4.644571E-01
  4.661183E-01
  4.668771E-01
  4.675366E-01
  4.675238E-01
  4.704077E-01
  4.690104E-01
  4.684205E-01
  4.645510E-01
  4.642547E-01
  4.629920E-01
  4.658981E-01
  4.667758E-01
  4.697248E-01
  4.684168E-01
  4.682644E-01
  4.653513E-01
  4.669729E-01
  4.687466E-01
  4.748818E-01
  4.774147E-01
  4.795051E-01
  4.754212E-01
  4.719064E-01
  4.654789E-01
  4.630021E-01
  4.600087E-01
  4.617889E-01
  4.621463E-01
  4.653255E-01
  4.659289E-01
  4.701706E-01
  4.729353E-01
  4.778149E-01
  4.769204E-01
  4.751157E-01
  4.694673E-01
  4.685582E-01
  4.682698E-01
  4.724431E-01
  4.730386E-01
  4.735910E-01
  4.690096E-01
  4.669328E-01
  4.648475E-01
  4.691341E-01
  4.724372E-01
  4.763303E-01
  4.733482E-01
  4.704530E-01
  4.656574E-01
  4.659824E-01
  4.650400E-01
  4.664129E-01
  4.645953E-01
  4.660058E-01
  4.656761E-01
  4.677141E-01
  4.654990E-01
  4.648881E-01
  4.627099E-01
  4.658789E-01
  4.683214E-01
  4.727642E-01
  4.717088E-01
  4.707606E-01
  4.618722E-01
  4.630472E-01
  4.650796E-01
  4.680882E-01
  4.700169E-01
  4.715882E-01
  4.715727E-01
  4.714131E-01
  4.705896E-01
  4.708345E-01
  4.708392E-01
  4.708786E-01
  4.691874E-01
  4.676013E-01
  4.666023E-01
  4.685039E-01
  4.717108E-01
  4.756046E-01
  4.772035E-01
  4.769377E-01
  4.740383E-01
  4.704996E-01
  4.659466E-01
  4.625357E-01
  4.604163E-01
  4.615349E-01
  4.640784E-01
  4.673717E-01
  4.688852E-01
  4.699335E-01
  4.702858E-01
  4.713787E-01
  4.716101E-01
  4.721609E-01
  4.726471E-01
  4.745462E-01
  4.756038E-01
  4.753694E-01
  4.722536E-01
  4.686617E-01
  4.652338E-01
  4.642539E-01
  4.646673E-01
  4.669221E-01
  4.686191E-01
  4.696611E-01
  4.685826E-01
  4.676440E-01
  4.671678E-01
  4.686037E-01
  4.695817E-01
  4.699301E-01
  4.685312E-01
  4.677674E-01
  4.673709E-01
  4.681053E-01
  4.678148E-01
  4.673744E-01
  4.663421E-01
  4.665629E-01
  4.665790E-01
  4.665235E-01
  4.647189E-01
  4.630815E-01
  4.621910E-01
  4.613279E-01
  4.637215E-01
  4.677771E-01
  4.715399E-01
  4.731489E-01
  4.729363E-01
  4.717390E-01
  4.711490E-01
  4.714453E-01
  4.725498E-01
  4.730219E-01
  4.721401E-01
  4.696249E-01
  4.672068E-01
  4.665232E-01
  4.688641E-01
  4.728679E-01
  4.762496E-01
  4.763959E-01
  4.733341E-01
  4.685326E-01
  4.647613E-01
  4.634083E-01
  4.651211E-01
  4.685116E-01
  4.718447E-01
  4.729593E-01
  4.720434E-01
  4.705406E-01
  4.705497E-01
  4.716359E-01
  4.724550E-01
  4.716923E-01
  4.705588E-01
  4.702778E-01
  4.713433E-01
  4.720083E-01
  4.711632E-01
  4.685441E-01
  4.658847E-01
  4.644657E-01
  4.652037E-01
  4.668884E-01
  4.680374E-01
  4.672069E-01
  4.655505E-01
  4.649760E-01
  4.671136E-01
  4.704107E-01
  4.724648E-01
  4.716995E-01
  4.700963E-01
  4.700441E-01
  4.724551E-01
  4.746694E-01
  4.741779E-01
  4.704612E-01
  4.665401E-01
  4.649565E-01
  4.663228E-01
  4.680191E-01
  4.678306E-01
  4.650963E-01
  4.585142E-01
  4.600679E-01
  4.626503E-01
  4.667695E-01
  4.699955E-01
  4.728201E-01
  4.733266E-01
  4.732142E-01
  4.720991E-01
  4.723393E-01
  4.724156E-01
  4.725998E-01
  4.705763E-01
  4.682838E-01
  4.659968E-01
  4.664952E-01
  4.683206E-01
  4.715217E-01
  4.730272E-01
  4.732359E-01
  4.707581E-01
  4.678735E-01
  4.644612E-01
  4.633103E-01
  4.640598E-01
  4.680057E-01
  4.719762E-01
  4.747505E-01
  4.733973E-01
  4.701969E-01
  4.660892E-01
  4.643669E-01
  4.641356E-01
  4.664489E-01
  4.692366E-01
  4.726573E-01
  4.734326E-01
  4.716876E-01
  4.667660E-01
  4.626749E-01
  4.604581E-01
  4.619535E-01
  4.641322E-01
  4.662214E-01
  4.658106E-01
  4.650747E-01
  4.643751E-01
  4.664002E-01
  4.694085E-01
  4.728812E-01
  4.733284E-01
  4.717925E-01
  4.686765E-01
  4.678495E-01
  4.689000E-01
  4.720276E-01
  4.736493E-01
  4.739493E-01
  4.719124E-01
  4.700033E-01
  4.672940E-01
  4.650184E-01
  4.617780E-01
  4.597237E-01
  4.617027E-01
  4.621031E-01
  4.631308E-01
  4.677310E-01
  4.696927E-01
  4.716832E-01
  4.695264E-01
  4.686986E-01
  4.666250E-01
  4.682599E-01
  4.689329E-01
  4.713122E-01
  4.698193E-01
  4.684560E-01
  4.644593E-01
  4.640925E-01
  4.645436E-01
  4.694121E-01
  4.722476E-01
  4.746731E-01
  4.715447E-01
  4.683678E-01
  4.636084E-01
  4.636681E-01
  4.650631E-01
  4.707223E-01
  4.739827E-01
  4.766289E-01
  4.738934E-01
  4.716148E-01
  4.679140E-01
  4.678639E-01
  4.665253E-01
  4.670767E-01
  4.654587E-01
  4.665305E-01
  4.661363E-01
  4.674603E-01
  4.655139E-01
  4.648185E-01
  4.625252E-01
  4.638603E-01
  4.645969E-01
  4.676287E-01
  4.674065E-01
  4.678881E-01
  4.662446E-01
  4.682327E-01
  4.697063E-01
  4.727973E-01
  4.710977E-01
  4.688649E-01
  4.646671E-01
  4.655895E-01
  4.678723E-01
  4.731834E-01
  4.743573E-01
  4.747221E-01
  4.717027E-01
  4.714604E-01
  4.701726E-01
  4.707444E-01
  4.677479E-01
  4.655618E-01
  4.602494E-01
  4.630839E-01
  4.636346E-01
  4.674885E-01
  4.680545E-01
  4.707835E-01
  4.689484E-01
  4.689620E-01
  4.658937E-01
  4.670273E-01
  4.661664E-01
  4.681948E-01
  4.659369E-01
  4.658831E-01
  4.633094E-01
  4.654016E-01
  4.659547E-01
  4.701954E-01
  4.710023E-01
  4.737128E-01
  4.715488E-01
  4.705367E-01
  4.652986E-01
  4.636593E-01
  4.613237E-01
  4.651104E-01
  4.677343E-01
  4.727808E-01
  4.719430E-01
  4.711976E-01
  4.660935E-01
  4.648568E-01
  4.624991E-01
  4.651140E-01
  4.658000E-01
  4.694198E-01
  4.684678E-01
  4.684372E-01
  4.639848E-01
  4.630758E-01
  4.610489E-01
  4.639685E-01
  4.644202E-01
  4.672362E-01
  4.660795E-01
  4.678805E-01
  4.673369E-01
  4.705332E-01
  4.702936E-01
  4.715010E-01
  4.675891E-01
  4.656703E-01
  4.614112E-01
  4.623703E-01
  4.627258E-01
  4.677496E-01
  4.700206E-01
  4.745370E-01
  4.743184E-01
  4.750361E-01
  4.705810E-01
  4.680014E-01
  4.626554E-01
  4.619767E-01
  4.650510E-01
  4.657585E-01
  4.652670E-01
  4.681565E-01
  4.685702E-01
  4.700592E-01
  4.674162E-01
  4.662783E-01
  4.632950E-01
  4.641927E-01
  4.639858E-01
  4.663713E-01
  4.655287E-01
  4.660859E-01
  4.640371E-01
  4.652742E-01
  4.657066E-01
  4.699395E-01
  4.721052E-01
  4.754565E-01
  4.739499E-01
  4.723280E-01
  4.670382E-01
  4.648035E-01
  4.623273E-01
  4.646572E-01
  4.660109E-01
  4.695458E-01
  4.693485E-01
  4.703621E-01
  4.687212E-01
  4.697508E-01
  4.682143E-01
  4.682464E-01
  4.652236E-01
  4.649653E-01
  4.635910E-01
  4.658374E-01
  4.660484E-01
  4.680886E-01
  4.668549E-01
  4.675727E-01
  4.662052E-01
  4.679139E-01
  4.675724E-01
  4.693392E-01
  4.681620E-01
  4.690408E-01
  4.672347E-01
  4.671417E-01
  4.637622E-01
  4.627274E-01
  4.608498E-01
  4.638119E-01
  4.660498E-01
  4.704062E-01
  4.706413E-01
  4.716236E-01
  4.695929E-01
  4.701833E-01
  4.686482E-01
  4.694177E-01
  4.673988E-01
  4.674098E-01
  4.659831E-01
  4.673802E-01
  4.668760E-01
  4.669355E-01
  4.673512E-01
  4.689573E-01
  4.692783E-01
  4.688482E-01
  4.670147E-01
  4.659979E-01
  4.649069E-01
  4.645759E-01
  4.637137E-01
  4.642354E-01
  4.655813E-01
  4.684887E-01
  4.704116E-01
  4.718097E-01
  4.720412E-01
  4.732065E-01
  4.737867E-01
  4.734982E-01
  4.699903E-01
  4.651959E-01
  4.602476E-01
  4.586439E-01
  4.597673E-01
  4.633295E-01
  4.656898E-01
  4.665615E-01
  4.651875E-01
  4.644957E-01
  4.646002E-01
  4.666561E-01
  4.683027E-01
  4.695241E-01
  4.686690E-01
  4.675298E-01
  4.659863E-01
  4.659962E-01
  4.662004E-01
  4.670529E-01
  4.668079E-01
  4.668795E-01
  4.666176E-01
  4.673779E-01
  4.673964E-01
  4.671628E-01
  4.652993E-01
  4.636779E-01
  4.621687E-01
  4.627497E-01
  4.640733E-01
  4.663706E-01
  4.674028E-01
  4.681273E-01
  4.678505E-01
  4.681764E-01
  4.674700E-01
  4.662567E-01
  4.635342E-01
  4.619394E-01
  4.616911E-01
  4.639653E-01
  4.739527E-01
  4.717740E-01
  4.695422E-01
  4.671052E-01
  4.673751E-01
  4.673027E-01
  4.680436E-01
  4.670502E-01
  4.669295E-01
  4.657878E-01
  4.658175E-01
  4.646932E-01
  4.649465E-01
  4.649303E-01
  4.671155E-01
  4.687723E-01
  4.712724E-01
  4.719565E-01
  4.733532E-01
  4.735483E-01
  4.744120E-01
  4.727931E-01
  4.704483E-01
  4.657848E-01
  4.625591E-01
  4.599501E-01
  4.605873E-01
  4.614763E-01
  4.635907E-01
  4.640895E-01
  4.656328E-01
  4.666336E-01
  4.690552E-01
  4.694837E-01
  4.692795E-01
  4.667184E-01
  4.656487E-01
  4.651294E-01
  4.672541E-01
  4.684108E-01
  4.695050E-01
  4.682665E-01
  4.681331E-01
  4.679089E-01
  4.694310E-01
  4.689592E-01
  4.677591E-01
  4.642243E-01
  4.621922E-01
  4.606571E-01
  4.621418E-01
  4.641724E-01
  4.683942E-01
  4.713865E-01
  4.736985E-01
  4.718996E-01
  4.685836E-01
  4.632367E-01
  4.600252E-01
  4.579685E-01
  4.597510E-01
  4.629156E-01
  4.684716E-01
  4.720474E-01
  4.762968E-01
  4.747600E-01
  4.712427E-01
  4.663770E-01
  4.653296E-01
  4.655527E-01
  4.680924E-01
  4.687332E-01
  4.695957E-01
  4.681267E-01
  4.670973E-01
  4.641689E-01
  4.631303E-01
  4.629244E-01
  4.667313E-01
  4.703089E-01
  4.736248E-01
  4.727161E-01
  4.715913E-01
  4.699656E-01
  4.712937E-01
  4.713063E-01
  4.704161E-01
  4.654554E-01
  4.610086E-01
  4.571965E-01
  4.580300E-01
  4.598152E-01
  4.626859E-01
  4.623219E-01
  4.620846E-01
  4.616083E-01
  4.650011E-01
  4.687051E-01
  4.728405E-01
  4.727406E-01
  4.711419E-01
  4.671587E-01
  4.653712E-01
  4.639247E-01
  4.650762E-01
  4.654201E-01
  4.672487E-01
  4.678503E-01
  4.695026E-01
  4.686764E-01
  4.674462E-01
  4.636992E-01
  4.616882E-01
  4.604216E-01
  4.632149E-01
  4.666554E-01
  4.714352E-01
  4.727178E-01
  4.721244E-01
  4.677981E-01
  4.643687E-01
  4.606398E-01
  4.593750E-01
  4.575554E-01
  4.582895E-01
  4.602083E-01
  4.663008E-01
  4.719173E-01
  4.813528E-01
  4.772864E-01
  4.722792E-01
  4.671061E-01
  4.652550E-01
  4.641247E-01
  4.649087E-01
  4.649059E-01
  4.660467E-01
  4.657994E-01
  4.658764E-01
  4.641655E-01
  4.636578E-01
  4.632842E-01
  4.655525E-01
  4.674561E-01
  4.697083E-01
  4.693655E-01
  4.691449E-01
  4.680607E-01
  4.688245E-01
  4.686753E-01
  4.686893E-01
  4.662856E-01
  4.644345E-01
  4.623676E-01
  4.629672E-01
  4.634853E-01
  4.648167E-01
  4.643891E-01
  4.654037E-01
  4.669571E-01
  4.708691E-01
  4.728816E-01
  4.731978E-01
  4.698065E-01
  4.670399E-01
  4.647858E-01
  4.654440E-01
  4.655724E-01
  4.662402E-01
  4.656684E-01
  4.672685E-01
  4.691586E-01
  4.718118E-01
  4.707188E-01
  4.675216E-01
  4.621511E-01
  4.597063E-01
  4.595170E-01
  4.631474E-01
  4.668414E-01
  4.711775E-01
  4.727222E-01
  4.727851E-01
  4.691812E-01
  4.652114E-01
  4.604777E-01
  4.586179E-01
  4.583179E-01
  4.620795E-01
  4.674748E-01
  4.750760E-01
  4.798337E-01
  4.767024E-01
  4.742924E-01
  4.711731E-01
  4.659456E-01
  4.645099E-01
  4.632498E-01
  4.649257E-01
  4.645927E-01
  4.657357E-01
  4.645289E-01
  4.647355E-01
  4.625170E-01
  4.624362E-01
  4.618354E-01
  4.649659E-01
  4.666357E-01
  4.684832E-01
  4.657454E-01
  4.638861E-01
  4.617452E-01
  4.643661E-01
  4.664618E-01
  4.691540E-01
  4.671120E-01
  4.653645E-01
  4.626385E-01
  4.643264E-01
  4.656438E-01
  4.680680E-01
  4.664372E-01
  4.658779E-01
  4.650286E-01
  4.687972E-01
  4.717260E-01
  4.749303E-01
  4.730219E-01
  4.706191E-01
  4.657614E-01
  4.638474E-01
  4.615819E-01
  4.627413E-01
  4.632591E-01
  4.666348E-01
  4.681888E-01
  4.704598E-01
  4.684642E-01
  4.662204E-01
  4.614337E-01
  4.599876E-01
  4.592770E-01
  4.629377E-01
  4.656844E-01
  4.694122E-01
  4.688725E-01
  4.680878E-01
  4.648762E-01
  4.650221E-01
  4.651355E-01
  4.677576E-01
  4.674712E-01
  4.682089E-01
  4.677601E-01
  4.712303E-01
  4.737835E-01
  4.744826E-01
  4.701445E-01
  4.700339E-01
  4.658657E-01
  4.667494E-01
  4.631740E-01
  4.639617E-01
  4.603803E-01
  4.619383E-01
  4.598185E-01
  4.628748E-01
  4.617827E-01
  4.652978E-01
  4.641377E-01
  4.669971E-01
  4.643933E-01
  4.651973E-01
  4.608223E-01
  4.614520E-01
  4.592746E-01
  4.636521E-01
  4.646750E-01
  4.697391E-01
  4.686603E-01
  4.708332E-01
  4.684356E-01
  4.713009E-01
  4.698289E-01
  4.721059E-01
  4.691337E-01
  4.713711E-01
  4.706937E-01
  4.751040E-01
  4.731119E-01
  4.725957E-01
  4.658843E-01
  4.648259E-01
  4.618822E-01
  4.652868E-01
  4.642006E-01
  4.668395E-01
  4.649643E-01
  4.687565E-01
  4.688608E-01
  4.723904E-01
  4.684372E-01
  4.664475E-01
  4.597978E-01
  4.599286E-01
  4.584055E-01
  4.630644E-01
  4.634167E-01
  4.677279E-01
  4.668560E-01
  4.700380E-01
  4.685254E-01
  4.717867E-01
  4.708778E-01
  4.744545E-01
  4.728197E-01
  4.751003E-01
  4.728022E-01
  4.753607E-01
  4.731621E-01
  4.664945E-01
  4.650482E-01
  4.688469E-01
  4.654287E-01
  4.679501E-01
  4.643477E-01
  4.667740E-01
  4.624647E-01
  4.641010E-01
  4.600277E-01
  4.631761E-01
  4.611449E-01
  4.659938E-01
  4.649254E-01
  4.697083E-01
  4.667825E-01
  4.677436E-01
  4.607357E-01
  4.604557E-01
  4.569917E-01
  4.632680E-01
  4.649290E-01
  4.713571E-01
  4.685862E-01
  4.702915E-01
  4.664832E-01
  4.707998E-01
  4.696155E-01
  4.733100E-01
  4.687800E-01
  4.700310E-01
  4.665005E-01
  4.707995E-01
  4.688733E-01
  4.716972E-01
  4.667927E-01
  4.676814E-01
  4.628314E-01
  4.649321E-01
  4.616913E-01
  4.657833E-01
  4.648570E-01
  4.706512E-01
  4.693970E-01
  4.724428E-01
  4.672243E-01
  4.672875E-01
  4.616253E-01
  4.635699E-01