# vtk DataFile Version 2.0
title
ASCII
DATASET STRUCTURED_GRID
DIMENSIONS   64   64    1
POINTS   4096  float
  0.000000E+00  0.000000E+00  0.000000E+00
  0.000000E+00  3.906250E-01  0.000000E+00
  0.000000E+00  7.812500E-01  0.000000E+00
  0.000000E+00  1.171875E+00  0.000000E+00
  0.000000E+00  1.562500E+00  0.000000E+00
  0.000000E+00  1.953125E+00  0.000000E+00
  0.000000E+00  2.343750E+00  0.000000E+00
  0.000000E+00  2.734375E+00  0.000000E+00
  0.000000E+00  3.125000E+00  0.000000E+00
  0.000000E+00  3.515625E+00  0.000000E+00
  0.000000E+00  3.906250E+00  0.000000E+00
  0.000000E+00  4.296875E+00  0.000000E+00
  0.000000E+00  4.687500E+00  0.000000E+00
  0.000000E+00  5.078125E+00  0.000000E+00
  0.000000E+00  5.468750E+00  0.000000E+00
  0.000000E+00  5.859375E+00  0.000000E+00
  0.000000E+00  6.250000E+00  0.000000E+00
  0.000000E+00  6.640625E+00  0.000000E+00
  0.000000E+00  7.031250E+00  0.000000E+00
  0.000000E+00  7.421875E+00  0.000000E+00
  0.000000E+00  7.812500E+00  0.000000E+00
  0.000000E+00  8.203125E+00  0.000000E+00
  0.000000E+00  8.593750E+00  0.000000E+00
  0.000000E+00  8.984375E+00  0.000000E+00
  0.000000E+00  9.375000E+00  0.000000E+00
  0.000000E+00  9.765625E+00  0.000000E+00
  0.000000E+00  1.015625E+01  0.000000E+00
  0.000000E+00  1.054688E+01  0.000000E+00
  0.000000E+00  1.093750E+01  0.000000E+00
  0.000000E+00  1.132812E+01  0.000000E+00
  0.000000E+00  1.171875E+01  0.000000E+00
  0.000000E+00  1.210938E+01  0.000000E+00
  0.000000E+00  1.250000E+01  0.000000E+00
  0.000000E+00  1.289062E+01  0.000000E+00
  0.000000E+00  1.328125E+01  0.000000E+00
  0.000000E+00  1.367188E+01  0.000000E+00
  0.000000E+00  1.406250E+01  0.000000E+00
  0.000000E+00  1.445312E+01  0.000000E+00
  0.000000E+00  1.484375E+01  0.000000E+00
  0.000000E+00  1.523438E+01  0.000000E+00
  0.000000E+00  1.562500E+01  0.000000E+00
  0.000000E+00  1.601562E+01  0.000000E+00
  0.000000E+00  1.640625E+01  0.000000E+00
  0.000000E+00  1.679688E+01  0.000000E+00
  0.000000E+00  1.718750E+01  0.000000E+00
  0.000000E+00  1.757812E+01  0.000000E+00
  0.000000E+00  1.796875E+01  0.000000E+00
  0.000000E+00  1.835938E+01  0.000000E+00
  0.000000E+00  1.875000E+01  0.000000E+00
  0.000000E+00  1.914062E+01  0.000000E+00
  0.000000E+00  1.953125E+01  0.000000E+00
  0.000000E+00  1.992188E+01  0.000000E+00
  0.000000E+00  2.031250E+01  0.000000E+00
  0.000000E+00  2.070312E+01  0.000000E+00
  0.000000E+00  2.109375E+01  0.000000E+00
  0.000000E+00  2.148438E+01  0.000000E+00
  0.000000E+00  2.187500E+01  0.000000E+00
  0.000000E+00  2.226562E+01  0.000000E+00
  0.000000E+00  2.265625E+01  0.000000E+00
  0.000000E+00  2.304688E+01  0.000000E+00
  0.000000E+00  2.343750E+01  0.000000E+00
  0.000000E+00  2.382812E+01  0.000000E+00
  0.000000E+00  2.421875E+01  0.000000E+00
  0.000000E+00  2.460938E+01  0.000000E+00
  3.906250E-01  0.000000E+00  0.000000E+00
  3.906250E-01  3.906250E-01  0.000000E+00
  3.906250E-01  7.812500E-01  0.000000E+00
  3.906250E-01  1.171875E+00  0.000000E+00
  3.906250E-01  1.562500E+00  0.000000E+00
  3.906250E-01  1.953125E+00  0.000000E+00
  3.906250E-01  2.343750E+00  0.000000E+00
  3.906250E-01  2.734375E+00  0.000000E+00
  3.906250E-01  3.125000E+00  0.000000E+00
  3.906250E-01  3.515625E+00  0.000000E+00
  3.906250E-01  3.906250E+00  0.000000E+00
  3.906250E-01  4.296875E+00  0.000000E+00
  3.906250E-01  4.687500E+00  0.000000E+00
  3.906250E-01  5.078125E+00  0.000000E+00
  3.906250E-01  5.468750E+00  0.000000E+00
  3.906250E-01  5.859375E+00  0.000000E+00
  3.906250E-01  6.250000E+00  0.000000E+00
  3.906250E-01  6.640625E+00  0.000000E+00
  3.906250E-01  7.031250E+00  0.000000E+00
  3.906250E-01  7.421875E+00  0.000000E+00
  3.906250E-01  7.812500E+00  0.000000E+00
  3.906250E-01  8.203125E+00  0.000000E+00
  3.906250E-01  8.593750E+00  0.000000E+00
  3.906250E-01  8.984375E+00  0.000000E+00
  3.906250E-01  9.375000E+00  0.000000E+00
  3.906250E-01  9.765625E+00  0.000000E+00
  3.906250E-01  1.015625E+01  0.000000E+00
  3.906250E-01  1.054688E+01  0.000000E+00
  3.906250E-01  1.093750E+01  0.000000E+00
  3.906250E-01  1.132812E+01  0.000000E+00
  3.906250E-01  1.171875E+01  0.000000E+00
  3.906250E-01  1.210938E+01  0.000000E+00
  3.906250E-01  1.250000E+01  0.000000E+00
  3.906250E-01  1.289062E+01  0.000000E+00
  3.906250E-01  1.328125E+01  0.000000E+00
  3.906250E-01  1.367188E+01  0.000000E+00
  3.906250E-01  1.406250E+01  0.000000E+00
  3.906250E-01  1.445312E+01  0.000000E+00
  3.906250E-01  1.484375E+01  0.000000E+00
  3.906250E-01  1.523438E+01  0.000000E+00
  3.906250E-01  1.562500E+01  0.000000E+00
  3.906250E-01  1.601562E+01  0.000000E+00
  3.906250E-01  1.640625E+01  0.000000E+00
  3.906250E-01  1.679688E+01  0.000000E+00
  3.906250E-01  1.718750E+01  0.000000E+00
  3.906250E-01  1.757812E+01  0.000000E+00
  3.906250E-01  1.796875E+01  0.000000E+00
  3.906250E-01  1.835938E+01  0.000000E+00
  3.906250E-01  1.875000E+01  0.000000E+00
  3.906250E-01  1.914062E+01  0.000000E+00
  3.906250E-01  1.953125E+01  0.000000E+00
  3.906250E-01  1.992188E+01  0.000000E+00
  3.906250E-01  2.031250E+01  0.000000E+00
  3.906250E-01  2.070312E+01  0.000000E+00
  3.906250E-01  2.109375E+01  0.000000E+00
  3.906250E-01  2.148438E+01  0.000000E+00
  3.906250E-01  2.187500E+01  0.000000E+00
  3.906250E-01  2.226562E+01  0.000000E+00
  3.906250E-01  2.265625E+01  0.000000E+00
  3.906250E-01  2.304688E+01  0.000000E+00
  3.906250E-01  2.343750E+01  0.000000E+00
  3.906250E-01  2.382812E+01  0.000000E+00
  3.906250E-01  2.421875E+01  0.000000E+00
  3.906250E-01  2.460938E+01  0.000000E+00
  7.812500E-01  0.000000E+00  0.000000E+00
  7.812500E-01  3.906250E-01  0.000000E+00
  7.812500E-01  7.812500E-01  0.000000E+00
  7.812500E-01  1.171875E+00  0.000000E+00
  7.812500E-01  1.562500E+00  0.000000E+00
  7.812500E-01  1.953125E+00  0.000000E+00
  7.812500E-01  2.343750E+00  0.000000E+00
  7.812500E-01  2.734375E+00  0.000000E+00
  7.812500E-01  3.125000E+00  0.000000E+00
  7.812500E-01  3.515625E+00  0.000000E+00
  7.812500E-01  3.906250E+00  0.000000E+00
  7.812500E-01  4.296875E+00  0.000000E+00
  7.812500E-01  4.687500E+00  0.000000E+00
  7.812500E-01  5.078125E+00  0.000000E+00
  7.812500E-01  5.468750E+00  0.000000E+00
  7.812500E-01  5.859375E+00  0.000000E+00
  7.812500E-01  6.250000E+00  0.000000E+00
  7.812500E-01  6.640625E+00  0.000000E+00
  7.812500E-01  7.031250E+00  0.000000E+00
  7.812500E-01  7.421875E+00  0.000000E+00
  7.812500E-01  7.812500E+00  0.000000E+00
  7.812500E-01  8.203125E+00  0.000000E+00
  7.812500E-01  8.593750E+00  0.000000E+00
  7.812500E-01  8.984375E+00  0.000000E+00
  7.812500E-01  9.375000E+00  0.000000E+00
  7.812500E-01  9.765625E+00  0.000000E+00
  7.812500E-01  1.015625E+01  0.000000E+00
  7.812500E-01  1.054688E+01  0.000000E+00
  7.812500E-01  1.093750E+01  0.000000E+00
  7.812500E-01  1.132812E+01  0.000000E+00
  7.812500E-01  1.171875E+01  0.000000E+00
  7.812500E-01  1.210938E+01  0.000000E+00
  7.812500E-01  1.250000E+01  0.000000E+00
  7.812500E-01  1.289062E+01  0.000000E+00
  7.812500E-01  1.328125E+01  0.000000E+00
  7.812500E-01  1.367188E+01  0.000000E+00
  7.812500E-01  1.406250E+01  0.000000E+00
  7.812500E-01  1.445312E+01  0.000000E+00
  7.812500E-01  1.484375E+01  0.000000E+00
  7.812500E-01  1.523438E+01  0.000000E+00
  7.812500E-01  1.562500E+01  0.000000E+00
  7.812500E-01  1.601562E+01  0.000000E+00
  7.812500E-01  1.640625E+01  0.000000E+00
  7.812500E-01  1.679688E+01  0.000000E+00
  7.812500E-01  1.718750E+01  0.000000E+00
  7.812500E-01  1.757812E+01  0.000000E+00
  7.812500E-01  1.796875E+01  0.000000E+00
  7.812500E-01  1.835938E+01  0.000000E+00
  7.812500E-01  1.875000E+01  0.000000E+00
  7.812500E-01  1.914062E+01  0.000000E+00
  7.812500E-01  1.953125E+01  0.000000E+00
  7.812500E-01  1.992188E+01  0.000000E+00
  7.812500E-01  2.031250E+01  0.000000E+00
  7.812500E-01  2.070312E+01  0.000000E+00
  7.812500E-01  2.109375E+01  0.000000E+00
  7.812500E-01  2.148438E+01  0.000000E+00
  7.812500E-01  2.187500E+01  0.000000E+00
  7.812500E-01  2.226562E+01  0.000000E+00
  7.812500E-01  2.265625E+01  0.000000E+00
  7.812500E-01  2.304688E+01  0.000000E+00
  7.812500E-01  2.343750E+01  0.000000E+00
  7.812500E-01  2.382812E+01  0.000000E+00
  7.812500E-01  2.421875E+01  0.000000E+00
  7.812500E-01  2.460938E+01  0.000000E+00
  1.171875E+00  0.000000E+00  0.000000E+00
  1.171875E+00  3.906250E-01  0.000000E+00
  1.171875E+00  7.812500E-01  0.000000E+00
  1.171875E+00  1.171875E+00  0.000000E+00
  1.171875E+00  1.562500E+00  0.000000E+00
  1.171875E+00  1.953125E+00  0.000000E+00
  1.171875E+00  2.343750E+00  0.000000E+00
  1.171875E+00  2.734375E+00  0.000000E+00
  1.171875E+00  3.125000E+00  0.000000E+00
  1.171875E+00  3.515625E+00  0.000000E+00
  1.171875E+00  3.906250E+00  0.000000E+00
  1.171875E+00  4.296875E+00  0.000000E+00
  1.171875E+00  4.687500E+00  0.000000E+00
  1.171875E+00  5.078125E+00  0.000000E+00
  1.171875E+00  5.468750E+00  0.000000E+00
  1.171875E+00  5.859375E+00  0.000000E+00
  1.171875E+00  6.250000E+00  0.000000E+00
  1.171875E+00  6.640625E+00  0.000000E+00
  1.171875E+00  7.031250E+00  0.000000E+00
  1.171875E+00  7.421875E+00  0.000000E+00
  1.171875E+00  7.812500E+00  0.000000E+00
  1.171875E+00  8.203125E+00  0.000000E+00
  1.171875E+00  8.593750E+00  0.000000E+00
  1.171875E+00  8.984375E+00  0.000000E+00
  1.171875E+00  9.375000E+00  0.000000E+00
  1.171875E+00  9.765625E+00  0.000000E+00
  1.171875E+00  1.015625E+01  0.000000E+00
  1.171875E+00  1.054688E+01  0.000000E+00
  1.171875E+00  1.093750E+01  0.000000E+00
  1.171875E+00  1.132812E+01  0.000000E+00
  1.171875E+00  1.171875E+01  0.000000E+00
  1.171875E+00  1.210938E+01  0.000000E+00
  1.171875E+00  1.250000E+01  0.000000E+00
  1.171875E+00  1.289062E+01  0.000000E+00
  1.171875E+00  1.328125E+01  0.000000E+00
  1.171875E+00  1.367188E+01  0.000000E+00
  1.171875E+00  1.406250E+01  0.000000E+00
  1.171875E+00  1.445312E+01  0.000000E+00
[...]
POINT_DATA   4096
SCALARS CON  float  1
LOOKUP_TABLE default
  4.710207E-01
  4.703365E-01
  4.759334E-01
  4.735690E-01
  4.739676E-01
  4.675204E-01
  4.690936E-01
  4.680031E-01
  4.737448E-01
  4.717443E-01
  4.728847E-01
  4.670650E-01
  4.679264E-01
  4.645283E-01
  4.682122E-01
  4.670125E-01
  4.722439E-01
  4.713270E-01
  4.746343E-01
  4.699210E-01
  4.698475E-01
  4.643217E-01
  4.657314E-01
  4.619471E-01
  4.638076E-01
  4.598917E-01
  4.631129E-01
  4.630309E-01
  4.705691E-01
  4.713683E-01
  4.745246E-01
  4.685876E-01
  4.684335E-01
  4.653616E-01
  4.708121E-01
  4.701542E-01
  4.724933E-01
  4.664724E-01
  4.661808E-01
  4.618033E-01
  4.647667E-01
  4.621454E-01
  4.647158E-01
  4.609705E-01
  4.631221E-01
  4.603916E-01
  4.653855E-01
  4.669855E-01
  4.754568E-01
  4.758390E-01
  4.771174E-01
  4.682172E-01
  4.648618E-01
  4.597069E-01
  4.660175E-01
  4.705086E-01
  4.807733E-01
  4.811979E-01
  4.825521E-01
  4.753140E-01
  4.743313E-01
  4.692328E-01
  4.710736E-01
  4.675756E-01
  4.709393E-01
  4.718487E-01
  4.793606E-01
  4.793419E-01
  4.789150E-01
  4.699353E-01
  4.672934E-01
  4.641164E-01
  4.691258E-01
  4.691239E-01
  4.723117E-01
  4.694178E-01
  4.714270E-01
  4.681631E-01
  4.691313E-01
  4.653937E-01
  4.686712E-01
  4.692504E-01
  4.747654E-01
  4.724547E-01
  4.718689E-01
  4.653291E-01
  4.654489E-01
  4.630512E-01
  4.666998E-01
  4.648453E-01
  4.671671E-01
  4.649254E-01
  4.690219E-01
  4.689382E-01
  4.728644E-01
  4.697935E-01
  4.704782E-01
  4.665574E-01
  4.685464E-01
  4.657892E-01
  4.675543E-01
  4.643369E-01
  4.668291E-01
  4.647633E-01
  4.667045E-01
  4.620797E-01
  4.618046E-01
  4.575386E-01
  4.597232E-01
  4.583092E-01
  4.635131E-01
  4.661831E-01
  4.752281E-01
  4.770636E-01
  4.782550E-01
  4.695226E-01
  4.659180E-01
  4.626562E-01
  4.707354E-01
  4.767512E-01
  4.852153E-01
  4.827082E-01
  4.803140E-01
  4.720687E-01
  4.713253E-01
  4.682645E-01
  4.707757E-01
  4.678705E-01
  4.638147E-01
  4.709587E-01
  4.797449E-01
  4.816984E-01
  4.789772E-01
  4.708486E-01
  4.663573E-01
  4.643886E-01
  4.676922E-01
  4.696159E-01
  4.722144E-01
  4.715847E-01
  4.721380E-01
  4.701950E-01
  4.698035E-01
  4.679255E-01
  4.693417E-01
  4.701202E-01
  4.727736E-01
  4.719765E-01
  4.713579E-01
  4.681099E-01
  4.673078E-01
  4.655232E-01
  4.661901E-01
  4.648983E-01
  4.654045E-01
  4.642891E-01
  4.656433E-01
  4.651024E-01
  4.656553E-01
  4.634819E-01
  4.638059E-01
  4.641848E-01
  4.680700E-01
  4.694123E-01
  4.702023E-01
  4.669969E-01
  4.656674E-01
  4.635699E-01
  4.637958E-01
  4.611536E-01
  4.594274E-01
  4.561877E-01
  4.567284E-01
  4.578010E-01
  4.630703E-01
  4.680967E-01
  4.750788E-01
  4.773892E-01
  4.768544E-01
  4.705992E-01
  4.663945E-01
  4.642964E-01
  4.693418E-01
  4.755526E-01
  4.826074E-01
  4.829725E-01
  4.797732E-01
  4.714153E-01
  4.650687E-01
  4.590063E-01
  4.577500E-01
  4.578902E-01
  4.631241E-01
  4.716073E-01
  4.782177E-01
  4.824063E-01
  4.770047E-01
  4.694501E-01
  4.610542E-01
  4.600732E-01
  4.615602E-01
  4.671289E-01
  4.699698E-01
  4.738060E-01
  4.737665E-01
  4.738463E-01
  4.697521E-01
  4.679100E-01
  4.661791E-01
  4.696232E-01
  4.717368E-01
  4.743290E-01
  4.719401E-01
  4.705257E-01
  4.676649E-01
  4.687718E-01
  4.685342E-01
  4.699073E-01
  4.674318E-01
  4.661304E-01
  4.630999E-01
  4.641675E-01
  4.646732E-01
  4.676150E-01
  4.670725E-01
  4.673761E-01
  4.648246E-01
  4.648327E-01
  4.635121E-01
  4.657027E-01
  4.665454E-01
  4.690384E-01
  4.668942E-01
  4.646065E-01
  4.599888E-01
  4.601070E-01
  4.608017E-01
  4.647559E-01
  4.659984E-01
  4.693667E-01
  4.708937E-01
  4.738721E-01
  4.717130E-01
  4.690686E-01
  4.646376E-01
  4.664579E-01
  4.705484E-01
  4.782936E-01
  4.807814E-01
  4.802269E-01
  4.732623E-01
  4.677078E-01
  4.616744E-01
  4.602082E-01
  4.581991E-01
  4.602438E-01
  4.602686E-01
  4.711289E-01
  4.748018E-01
  4.790144E-01
  4.712328E-01
  4.667413E-01
  4.583709E-01
  4.600932E-01
  4.596584E-01
  4.667124E-01
  4.677196E-01
  4.732184E-01
  4.708537E-01
  4.725628E-01
  4.676185E-01
  4.692433E-01
  4.665641E-01
  4.709794E-01
  4.696683E-01
  4.734959E-01
  4.704598E-01
  4.725119E-01
  4.680446E-01
  4.690801E-01
  4.643788E-01
  4.660489E-01
  4.622587E-01
  4.644017E-01
  4.609071E-01
  4.639708E-01
  4.620101E-01
  4.660783E-01
  4.637982E-01
  4.670216E-01
  4.645503E-01
  4.681271E-01
  4.655717E-01
  4.684958E-01
  4.655043E-01
  4.682215E-01
  4.641698E-01
  4.649774E-01
  4.603909E-01
  4.640087E-01
  4.643376E-01
  4.709652E-01
  4.697783E-01
  4.722474E-01
  4.680140E-01
  4.698230E-01
  4.656185E-01
  4.667567E-01
  4.622892E-01
  4.653445E-01
  4.648851E-01
  4.717306E-01
  4.721819E-01
  4.761915E-01
  4.712656E-01
  4.698271E-01
  4.615127E-01
  4.596145E-01
  4.540426E-01
  4.579314E-01
  4.651450E-01
  4.719501E-01
  4.721644E-01
  4.760591E-01
  4.683680E-01
  4.648749E-01
  4.558385E-01
  4.573890E-01
  4.560178E-01
  4.635911E-01
  4.647268E-01
  4.715770E-01
  4.693995E-01
  4.715602E-01
  4.655030E-01
  4.671239E-01
  4.645916E-01
  4.712783E-01
  4.714256E-01
  4.765036E-01
  4.721435E-01
  4.729415E-01
  4.665236E-01
  4.675065E-01
  4.626977E-01
  4.655551E-01
  4.618489E-01
  4.647455E-01
  4.613309E-01
  4.665133E-01
  4.668435E-01
  4.738261E-01
  4.709917E-01
  4.713694E-01
  4.635346E-01
  4.642140E-01
  4.613509E-01
  4.678508E-01
  4.679311E-01
  4.727634E-01
  4.675033E-01
  4.673413E-01
  4.622448E-01
  4.683491E-01
  4.706906E-01
  4.783592E-01
  4.742306E-01
  4.730693E-01
  4.649635E-01
  4.659148E-01
  4.616859E-01
  4.644193E-01
  4.605766E-01
  4.648944E-01
  4.640170E-01
  4.700688E-01
  4.676779E-01
  4.702567E-01
  4.654724E-01
  4.683291E-01
  4.652409E-01
  4.687998E-01
  4.647175E-01
  4.674514E-01
  4.645126E-01
  4.697863E-01
  4.694107E-01
  4.719932E-01
  4.666149E-01
  4.655619E-01
  4.601189E-01
  4.618030E-01
  4.600489E-01
  4.649225E-01
  4.648966E-01
  4.692758E-01
  4.665553E-01
  4.678909E-01
  4.643339E-01
  4.679704E-01
  4.681664E-01
  4.741329E-01
  4.736460E-01
  4.767395E-01
  4.728881E-01
  4.729909E-01
  4.663929E-01
  4.643777E-01
  4.579494E-01
  4.592393E-01
  4.577861E-01
  4.628574E-01
  4.627472E-01
  4.679955E-01
  4.681135E-01
  4.728493E-01
  4.703043E-01
  4.713633E-01
  4.671485E-01
  4.697694E-01
  4.683374E-01
  4.721320E-01
  4.694538E-01
  4.706842E-01
  4.655364E-01
  4.658486E-01
  4.629316E-01
  4.687034E-01
  4.714444E-01
  4.782371E-01
  4.752615E-01
  4.735966E-01
  4.658308E-01
  4.654531E-01
  4.620815E-01
  4.647697E-01
  4.617441E-01
  4.637105E-01
  4.607609E-01
  4.638228E-01
  4.622154E-01
  4.664006E-01
  4.655764E-01
  4.698356E-01
  4.677078E-01
  4.693576E-01
  4.647851E-01
  4.662627E-01
  4.668583E-01
  4.674869E-01
  4.675106E-01
  4.703630E-01
  4.690207E-01
  4.684780E-01
  4.647522E-01
  4.644811E-01
  4.631820E-01
  4.659023E-01
  4.666832E-01
  4.695731E-01
  4.683541E-01
  4.682486E-01
  4.654297E-01
  4.670602E-01
  4.688723E-01
  4.749120E-01
  4.773321E-01
  4.792546E-01
  4.752241E-01
  4.718821E-01
  4.656932E-01
  4.631915E-01
  4.600731E-01
  4.617398E-01
  4.622320E-01
  4.654919E-01
  4.660477E-01
  4.700699E-01
  4.728006E-01
  4.777199E-01
  4.768646E-01
  4.749067E-01
  4.692250E-01
  4.683893E-01
  4.682637E-01
  4.723996E-01
  4.729647E-01
  4.735276E-01
  4.690671E-01
  4.669003E-01
  4.646435E-01
  4.687861E-01
  4.722464E-01
  4.763167E-01
  4.734280E-01
  4.704308E-01
  4.656754E-01
  4.661336E-01
  4.653782E-01
  4.666877E-01
  4.647227E-01
  4.659625E-01
  4.656533E-01
  4.677010E-01
  4.655253E-01
  4.648785E-01
  4.627775E-01
  4.659960E-01
  4.685110E-01
  4.728852E-01
  4.717817E-01
  4.707364E-01
  4.618497E-01
  4.630896E-01
  4.650654E-01
  4.680861E-01
  4.699533E-01
  4.716383E-01
  4.716506E-01
  4.715232E-01
  4.705268E-01
  4.707163E-01
  4.706761E-01
  4.708450E-01
  4.691714E-01
  4.676778E-01
  4.666781E-01
  4.686740E-01
  4.718062E-01
  4.756216E-01
  4.769844E-01
  4.766489E-01
  4.737651E-01
  4.705268E-01
  4.661852E-01
  4.629029E-01
  4.606213E-01
  4.616601E-01
  4.641157E-01
  4.674262E-01
  4.687647E-01
  4.697523E-01
  4.701249E-01
  4.714583E-01
  4.716999E-01
  4.721452E-01
  4.724029E-01
  4.743381E-01
  4.754332E-01
  4.752874E-01
  4.721260E-01
  4.686835E-01
  4.653824E-01
  4.645280E-01
  4.647648E-01
  4.668607E-01
  4.684026E-01
  4.695298E-01
  4.684673E-01
  4.676091E-01
  4.671207E-01
  4.686839E-01
  4.696563E-01
  4.699915E-01
  4.684264E-01
  4.676915E-01
  4.673723E-01
  4.683149E-01
  4.679971E-01
  4.674669E-01
  4.662103E-01
  4.664136E-01
  4.664348E-01
  4.665175E-01
  4.647022E-01
  4.631098E-01
  4.621650E-01
  4.614289E-01
  4.637747E-01
  4.678639E-01
  4.714436E-01
  4.730410E-01
  4.727566E-01
  4.717019E-01
  4.710630E-01
  4.713783E-01
  4.723253E-01
  4.728664E-01
  4.720102E-01
  4.697250E-01
  4.673331E-01
  4.667076E-01
  4.688459E-01
  4.727550E-01
  4.759068E-01
  4.760519E-01
  4.729853E-01
  4.685072E-01
  4.649613E-01
  4.638314E-01
  4.653816E-01
  4.686650E-01
  4.718052E-01
  4.729279E-01
  4.718145E-01
  4.702642E-01
  4.702268E-01
  4.715680E-01
  4.724395E-01
  4.717198E-01
  4.704378E-01
  4.702585E-01
  4.713041E-01
  4.720010E-01
  4.709814E-01
  4.684558E-01
  4.658883E-01
  4.647182E-01
  4.654263E-01
  4.671087E-01
  4.680431E-01
  4.671254E-01
  4.652434E-01
  4.646976E-01
  4.668752E-01
  4.704423E-01
  4.724981E-01
  4.716815E-01
  4.698141E-01
  4.698247E-01
  4.723803E-01
  4.749343E-01
  4.744311E-01
  4.706173E-01
  4.663772E-01
  4.647327E-01
  4.660306E-01
  4.678856E-01
  4.677022E-01
  4.650994E-01
  4.587472E-01
  4.603147E-01
  4.628066E-01
  4.667745E-01
  4.697967E-01
  4.725439E-01
  4.730484E-01
  4.729899E-01
  4.718600E-01
  4.721245E-01
  4.722473E-01
  4.725428E-01
  4.705758E-01
  4.683439E-01
  4.660650E-01
  4.665627E-01
  4.682845E-01
  4.713746E-01
  4.727598E-01
  4.729540E-01
  4.705235E-01
  4.678137E-01
  4.645732E-01
  4.635441E-01
  4.642387E-01
  4.680793E-01
  4.719138E-01
  4.745911E-01
  4.730898E-01
  4.698355E-01
  4.658125E-01
  4.643293E-01
  4.642187E-01
  4.664848E-01
  4.691077E-01
  4.724958E-01
  4.733154E-01
  4.716265E-01
  4.666501E-01
  4.625602E-01
  4.604369E-01
  4.621499E-01
  4.644637E-01
  4.665625E-01
  4.659734E-01
  4.650338E-01
  4.641441E-01
  4.661247E-01
  4.691723E-01
  4.727707E-01
  4.732618E-01
  4.717085E-01
  4.685154E-01
  4.677357E-01
  4.689152E-01
  4.721926E-01
  4.737522E-01
  4.738340E-01
  4.715361E-01
  4.695888E-01
  4.670261E-01
  4.650076E-01
  4.619197E-01
  4.599510E-01
  4.619973E-01
  4.623706E-01
  4.633891E-01
  4.677953E-01
  4.695935E-01
  4.713868E-01
  4.692591E-01
  4.684806E-01
  4.665440E-01
  4.681617E-01
  4.688671E-01
  4.712179E-01
  4.698325E-01
  4.685040E-01
  4.645944E-01
  4.641710E-01
  4.646189E-01
  4.694068E-01
  4.722710E-01
  4.746351E-01
  4.715276E-01
  4.683179E-01
  4.636572E-01
  4.637048E-01
  4.650886E-01
  4.706059E-01
  4.738549E-01
  4.764407E-01
  4.737016E-01
  4.713184E-01
  4.676980E-01
  4.677567E-01
  4.665937E-01
  4.671035E-01
  4.654733E-01
  4.665225E-01
  4.662600E-01
  4.675619E-01
  4.655586E-01
  4.646949E-01
  4.624194E-01
  4.638132E-01
  4.647617E-01
  4.678818E-01
  4.677066E-01
  4.680020E-01
  4.662084E-01
  4.680558E-01
  4.696419E-01
  4.728399E-01
  4.712603E-01
  4.689158E-01
  4.646312E-01
  4.654400E-01
  4.677771E-01
  4.730442E-01
  4.741771E-01
  4.743807E-01
  4.713797E-01
  4.712064E-01
  4.701436E-01
  4.708221E-01
  4.679549E-01
  4.657741E-01
  4.605438E-01
  4.633699E-01
  4.638747E-01
  4.675473E-01
  4.680061E-01
  4.706646E-01
  4.688735E-01
  4.688507E-01
  4.657804E-01
  4.669200E-01
  4.662135E-01
  4.683351E-01
  4.661188E-01
  4.659724E-01
  4.633896E-01
  4.654817E-01
  4.660973E-01
  4.703056E-01
  4.711135E-01
  4.737730E-01
  4.716131E-01
  4.705434E-01
  4.653125E-01
  4.636343E-01
  4.613022E-01
  4.650149E-01
  4.676179E-01
  4.725988E-01
  4.717728E-01
  4.710445E-01
  4.661181E-01
  4.650510E-01
  4.628139E-01
  4.653035E-01
  4.658309E-01
  4.693371E-01
  4.684880E-01
  4.685458E-01
  4.641493E-01
  4.631563E-01
  4.611078E-01
  4.640069E-01
  4.645187E-01
  4.673172E-01
  4.661744E-01
  4.679382E-01
  4.674312E-01
  4.706102E-01
  4.703947E-01
  4.715596E-01
  4.676676E-01
  4.657291E-01
  4.615079E-01
  4.624120E-01
  4.626920E-01
  4.675137E-01
  4.696404E-01
  4.740634E-01
  4.739777E-01
  4.748922E-01
  4.706838E-01
  4.681910E-01
  4.628958E-01
  4.622022E-01
  4.650706E-01
  4.658760E-01
  4.653882E-01
  4.682773E-01
  4.686441E-01
  4.701283E-01
  4.674533E-01
  4.663247E-01
  4.633152E-01
  4.642332E-01
  4.640335E-01
  4.664732E-01
  4.656303E-01
  4.662023E-01
  4.641322E-01
  4.653808E-01
  4.657499E-01
  4.699120E-01
  4.719788E-01
  4.753269E-01
  4.738400E-01
  4.723065E-01
  4.670797E-01
  4.649201E-01
  4.624133E-01
  4.646829E-01
  4.659418E-01
  4.694750E-01
  4.692879E-01
  4.703739E-01
  4.688082E-01
  4.699751E-01
  4.684809E-01
  4.684727E-01
  4.653183E-01
  4.650288E-01
  4.636734E-01
  4.659857E-01
  4.661894E-01
  4.682409E-01
  4.669702E-01
  4.676434E-01
  4.661546E-01
  4.678060E-01
  4.674511E-01
  4.692946E-01
  4.681564E-01
  4.690938E-01
  4.673064E-01
  4.672574E-01
  4.638533E-01
  4.628086E-01
  4.608953E-01
  4.638569E-01
  4.659971E-01
  4.702218E-01
  4.703298E-01
  4.713957E-01
  4.695744E-01
  4.703891E-01
  4.688557E-01
  4.695034E-01
  4.673352E-01
  4.673594E-01
  4.659226E-01
  4.673413E-01
  4.668104E-01
  4.668763E-01
  4.673707E-01
  4.690841E-01
  4.694201E-01
  4.688854E-01
  4.669230E-01
  4.659061E-01
  4.649446E-01
  4.647402E-01
  4.638747E-01
  4.643211E-01
  4.656250E-01
  4.685253E-01
  4.703453E-01
  4.715244E-01
  4.715608E-01
  4.727239E-01
  4.734761E-01
  4.734139E-01
  4.700874E-01
  4.654229E-01
  4.605267E-01
  4.588811E-01
  4.598888E-01
  4.633579E-01
  4.657011E-01
  4.666360E-01
  4.653539E-01
  4.647403E-01
  4.648387E-01
  4.667846E-01
  4.682634E-01
  4.693755E-01
  4.685129E-01
  4.674496E-01
  4.660157E-01
  4.661570E-01
  4.664480E-01
  4.672577E-01
  4.668080E-01
  4.666450E-01
  4.662785E-01
  4.671223E-01
  4.672987E-01
  4.671726E-01
  4.653088E-01
  4.636327E-01
  4.620807E-01
  4.626985E-01
  4.641270E-01
  4.665267E-01
  4.675517E-01
  4.681708E-01
  4.678079E-01
  4.681931E-01
  4.676449E-01
  4.665369E-01
  4.637470E-01
  4.619797E-01
  4.615948E-01
  4.638571E-01
  4.738094E-01
  4.715308E-01
  4.693465E-01
  4.669374E-01
  4.674115E-01
  4.673614E-01
  4.681481E-01
  4.670359E-01
  4.669444E-01
  4.657484E-01
  4.658601E-01
  4.646851E-01
  4.650041E-01
  4.649540E-01
  4.672532E-01
  4.688518E-01
  4.712695E-01
  4.716259E-01
  4.728703E-01
  4.729962E-01
  4.740989E-01
  4.726525E-01
  4.705725E-01
  4.659969E-01
  4.629022E-01
  4.602098E-01
  4.608503E-01
  4.616582E-01
  4.638361E-01
  4.642201E-01
  4.657034E-01
  4.665315E-01
  4.689738E-01
  4.693567E-01
  4.692436E-01
  4.666359E-01
  4.656105E-01
  4.649969E-01
  4.671988E-01
  4.683932E-01
  4.696422E-01
  4.682983E-01
  4.680549E-01
  4.676304E-01
  4.692182E-01
  4.687734E-01
  4.676972E-01
  4.641340E-01
  4.622263E-01
  4.607077E-01
  4.622614E-01
  4.641584E-01
  4.683888E-01
  4.713579E-01
  4.738068E-01
  4.719849E-01
  4.687730E-01
  4.634912E-01
  4.604961E-01
  4.583915E-01
  4.600345E-01
  4.628636E-01
  4.683251E-01
  4.718305E-01
  4.762573E-01
  4.745211E-01
  4.709815E-01
  4.661133E-01
  4.653023E-01
  4.655915E-01
  4.681865E-01
  4.686515E-01
  4.695126E-01
  4.680477E-01
  4.672268E-01
  4.642948E-01
  4.632452E-01
  4.628764E-01
  4.667692E-01
  4.703844E-01
  4.737778E-01
  4.726513E-01
  4.714161E-01
  4.696858E-01
  4.711649E-01
  4.712045E-01
  4.704409E-01
  4.654907E-01
  4.612082E-01
  4.573995E-01
  4.583241E-01
  4.600648E-01
  4.630063E-01
  4.624987E-01
  4.621609E-01
  4.614669E-01
  4.648733E-01
  4.685352E-01
  4.727518E-01
  4.725635E-01
  4.710057E-01
  4.669745E-01
  4.653305E-01
  4.639295E-01
  4.652123E-01
  4.654407E-01
  4.672063E-01
  4.676678E-01
  4.694429E-01
  4.686706E-01
  4.675766E-01
  4.637791E-01
  4.618600E-01
  4.605666E-01
  4.634031E-01
  4.666771E-01
  4.714322E-01
  4.726506E-01
  4.721857E-01
  4.678503E-01
  4.645451E-01
  4.608482E-01
  4.597398E-01
  4.578398E-01
  4.585043E-01
  4.602129E-01
  4.663167E-01
  4.718690E-01
  4.812042E-01
  4.770766E-01
  4.720352E-01
  4.670288E-01
  4.653101E-01
  4.642440E-01
  4.649248E-01
  4.648994E-01
  4.660687E-01
  4.659582E-01
  4.660538E-01
  4.642979E-01
  4.636149E-01
  4.631602E-01
  4.654230E-01
  4.674957E-01
  4.698637E-01
  4.695964E-01
  4.693056E-01
  4.681762E-01
  4.688311E-01
  4.686278E-01
  4.685685E-01
  4.662134E-01
  4.643865E-01
  4.623997E-01
  4.630582E-01
  4.637432E-01
  4.651282E-01
  4.646161E-01
  4.653403E-01
  4.667216E-01
  4.706084E-01
  4.727881E-01
  4.731942E-01
  4.698607E-01
  4.670478E-01
  4.648195E-01
  4.654871E-01
  4.656829E-01
  4.662892E-01
  4.656264E-01
  4.671127E-01
  4.691107E-01
  4.719356E-01
  4.709928E-01
  4.677230E-01
  4.623167E-01
  4.599241E-01
  4.599164E-01
  4.635234E-01
  4.670209E-01
  4.710491E-01
  4.724931E-01
  4.725637E-01
  4.690803E-01
  4.651919E-01
  4.606396E-01
  4.588952E-01
  4.586261E-01
  4.621959E-01
  4.674342E-01
  4.749434E-01
  4.797477E-01
  4.765503E-01
  4.742045E-01
  4.709613E-01
  4.659663E-01
  4.645582E-01
  4.634913E-01
  4.649870E-01
  4.646665E-01
  4.656601E-01
  4.646924E-01
  4.649328E-01
  4.628477E-01
  4.624402E-01
  4.616877E-01
  4.645810E-01
  4.665065E-01
  4.684822E-01
  4.660482E-01
  4.641007E-01
  4.620093E-01
  4.643887E-01
  4.664896E-01
  4.689900E-01
  4.670659E-01
  4.652102E-01
  4.626122E-01
  4.642146E-01
  4.657566E-01
  4.681435E-01
  4.665919E-01
  4.657689E-01
  4.649631E-01
  4.686601E-01
  4.717814E-01
  4.748255E-01
  4.729488E-01
  4.704253E-01
  4.658370E-01
  4.639864E-01
  4.619304E-01
  4.629010E-01
  4.633792E-01
  4.665034E-01
  4.681854E-01
  4.704475E-01
  4.686781E-01
  4.663343E-01
  4.616726E-01
  4.601575E-01
  4.596244E-01
  4.631118E-01
  4.658140E-01
  4.692554E-01
  4.687734E-01
  4.678646E-01
  4.647753E-01
  4.648154E-01
  4.651331E-01
  4.677397E-01
  4.676107E-01
  4.681611E-01
  4.677563E-01
  4.710871E-01
  4.737807E-01
  4.742663E-01
  4.700464E-01
  4.698868E-01
  4.659768E-01
  4.668721E-01
  4.634402E-01
  4.640650E-01
  4.605587E-01
  4.620136E-01
  4.600481E-01
  4.630092E-01
  4.619958E-01
  4.652882E-01
  4.640941E-01
  4.667342E-01
  4.642735E-01
  4.651101E-01
  4.610122E-01
  4.615935E-01
  4.594822E-01
  4.636546E-01
  4.647514E-01
  4.697244E-01
  4.687718E-01
  4.707460E-01
  4.683384E-01
  4.710636E-01
  4.698264E-01
  4.720941E-01
  4.691755E-01
  4.711321E-01
  4.705038E-01
  4.748851E-01
  4.731077E-01
  4.724707E-01
  4.658395E-01
  4.647240E-01
  4.620501E-01
  4.654786E-01
  4.645268E-01
  4.669302E-01
  4.649769E-01
  4.685101E-01
  4.687233E-01
  4.722241E-01
  4.684546E-01
  4.663656E-01
  4.598839E-01
  4.600320E-01
  4.587283E-01
  4.632213E-01
  4.635077E-01
  4.675520E-01
  4.667607E-01
  4.698362E-01
  4.684123E-01
  4.715386E-01
  4.708240E-01
  4.744265E-01
  4.729731E-01
  4.750621E-01
  4.727543E-01
  4.751360E-01
  4.730587E-01
  4.664638E-01
  4.650051E-01
  4.687566E-01
  4.654078E-01
  4.679947E-01
  4.645365E-01
  4.669816E-01
  4.626379E-01
  4.641250E-01
  4.600382E-01
  4.632388E-01
  4.613569E-01
  4.661985E-01
  4.650660E-01
  4.697076E-01
  4.667841E-01
  4.677596E-01
  4.608261E-01
  4.605140E-01
  4.570600E-01
  4.633173E-01
  4.650649E-01
  4.715128E-01
  4.687437E-01
  4.702940E-01
  4.663795E-01
  4.706250E-01
  4.695381E-01
  4.732577E-01
  4.687203E-01
  4.698767E-01
  4.663999E-01
  4.707392E-01
  4.688202E-01
  4.714742E-01
  4.665206E-01
  4.674940E-01
  4.629080E-01
  4.651335E-01
  4.619106E-01
  4.658543E-01
  4.648192E-01
  4.704484E-01
  4.691126E-01
  4.720778E-01
  4.669517E-01
  4.671473E-01
  4.617095E-01
  4.637366E-01