# vtk DataFile Version 2.0
title
ASCII
DATASET STRUCTURED_GRID
DIMENSIONS   64   64    1
POINTS   4096  float
  0.000000E+00  0.000000E+00  0.000000E+00
  0.000000E+00  3.906250E-01  0.000000E+00
  0.000000E+00  7.812500E-01  0.000000E+00
  0.000000E+00  1.171875E+00  0.000000E+00
  0.000000E+00  1.562500E+00  0.000000E+00
  0.000000E+00  1.953125E+00  0.000000E+00
  0.000000E+00  2.343750E+00  0.000000E+00
  0.000000E+00  2.734375E+00  0.000000E+00
  0.000000E+00  3.125000E+00  0.000000E+00
  0.000000E+00  3.515625E+00  0.000000E+00
  0.000000E+00  3.906250E+00  0.000000E+00
  0.000000E+00  4.296875E+00  0.000000E+00
  0.000000E+00  4.687500E+00  0.000000E+00
  0.000000E+00  5.078125E+00  0.000000E+00
  0.000000E+00  5.468750E+00  0.000000E+00
  0.000000E+00  5.859375E+00  0.000000E+00
  0.000000E+00  6.250000E+00  0.000000E+00
  0.000000E+00  6.640625E+00  0.000000E+00
  0.000000E+00  7.031250E+00  0.000000E+00
  0.000000E+00  7.421875E+00  0.000000E+00
  0.000000E+00  7.812500E+00  0.000000E+00
  0.000000E+00  8.203125E+00  0.000000E+00
  0.000000E+00  8.593750E+00  0.000000E+00
  0.000000E+00  8.984375E+00  0.000000E+00
  0.000000E+00  9.375000E+00  0.000000E+00
  0.000000E+00  9.765625E+00  0.000000E+00
  0.000000E+00  1.015625E+01  0.000000E+00
  0.000000E+00  1.054688E+01  0.000000E+00
  0.000000E+00  1.093750E+01  0.000000E+00
  0.000000E+00  1.132812E+01  0.000000E+00
  0.000000E+00  1.171875E+01  0.000000E+00
  0.000000E+00  1.210938E+01  0.000000E+00
  0.000000E+00  1.250000E+01  0.000000E+00
  0.000000E+00  1.289062E+01  0.000000E+00
  0.000000E+00  1.328125E+01  0.000000E+00
  0.000000E+00  1.367188E+01  0.000000E+00
  0.000000E+00  1.406250E+01  0.000000E+00
  0.000000E+00  1.445312E+01  0.000000E+00
  0.000000E+00  1.484375E+01  0.000000E+00
  0.000000E+00  1.523438E+01  0.000000E+00
  0.000000E+00  1.562500E+01  0.000000E+00
  0.000000E+00  1.601562E+01  0.000000E+00
  0.000000E+00  1.640625E+01  0.000000E+00
  0.000000E+00  1.679688E+01  0.000000E+00
  0.000000E+00  1.718750E+01  0.000000E+00
  0.000000E+00  1.757812E+01  0.000000E+00
  0.000000E+00  1.796875E+01  0.000000E+00
  0.000000E+00  1.835938E+01  0.000000E+00
  0.000000E+00  1.875000E+01  0.000000E+00
  0.000000E+00  1.914062E+01  0.000000E+00
  0.000000E+00  1.953125E+01  0.000000E+00
  0.000000E+00  1.992188E+01  0.000000E+00
  0.000000E+00  2.031250E+01  0.000000E+00
  0.000000E+00  2.070312E+01  0.000000E+00
  0.000000E+00  2.109375E+01  0.000000E+00
  0.000000E+00  2.148438E+01  0.000000E+00
  0.000000E+00  2.187500E+01  0.000000E+00
  0.000000E+00  2.226562E+01  0.000000E+00
  0.000000E+00  2.265625E+01  0.000000E+00
  0.000000E+00  2.304688E+01  0.000000E+00
  0.000000E+00  2.343750E+01  0.000000E+00
  0.000000E+00  2.382812E+01  0.000000E+00
  0.000000E+00  2.421875E+01  0.000000E+00
  0.000000E+00  2.460938E+01  0.000000E+00
  3.906250E-01  0.000000E+00  0.000000E+00
  3.906250E-01  3.906250E-01  0.000000E+00
  3.906250E-01  7.812500E-01  0.000000E+00
  3.906250E-01  1.171875E+00  0.000000E+00
  3.906250E-01  1.562500E+00  0.000000E+00
  3.906250E-01  1.953125E+00  0.000000E+00
  3.906250E-01  2.343750E+00  0.000000E+00
  3.906250E-01  2.734375E+00  0.000000E+00
  3.906250E-01  3.125000E+00  0.000000E+00
  3.906250E-01  3.515625E+00  0.000000E+00
  3.906250E-01  3.906250E+00  0.000000E+00
  3.906250E-01  4.296875E+00  0.000000E+00
  3.906250E-01  4.687500E+00  0.000000E+00
  3.906250E-01  5.078125E+00  0.000000E+00
  3.906250E-01  5.468750E+00  0.000000E+00
  3.906250E-01  5.859375E+00  0.000000E+00
  3.906250E-01  6.250000E+00  0.000000E+00
  3.906250E-01  6.640625E+00  0.000000E+00
  3.906250E-01  7.031250E+00  0.000000E+00
  3.906250E-01  7.421875E+00  0.000000E+00
  3.906250E-01  7.812500E+00  0.000000E+00
  3.906250E-01  8.203125E+00  0.000000E+00
  3.906250E-01  8.593750E+00  0.000000E+00
  3.906250E-01  8.984375E+00  0.000000E+00
  3.906250E-01  9.375000E+00  0.000000E+00
  3.906250E-01  9.765625E+00  0.000000E+00
  3.906250E-01  1.015625E+01  0.000000E+00
  3.906250E-01  1.054688E+01  0.000000E+00
  3.906250E-01  1.093750E+01  0.000000E+00
  3.906250E-01  1.132812E+01  0.000000E+00
  3.906250E-01  1.171875E+01  0.000000E+00
  3.906250E-01  1.210938E+01  0.000000E+00
  3.906250E-01  1.250000E+01  0.000000E+00
  3.906250E-01  1.289062E+01  0.000000E+00
  3.906250E-01  1.328125E+01  0.000000E+00
  3.906250E-01  1.367188E+01  0.000000E+00
  3.906250E-01  1.406250E+01  0.000000E+00
  3.906250E-01  1.445312E+01  0.000000E+00
  3.906250E-01  1.484375E+01  0.000000E+00
  3.906250E-01  1.523438E+01  0.000000E+00
  3.906250E-01  1.562500E+01  0.000000E+00
  3.906250E-01  1.601562E+01  0.000000E+00
  3.906250E-01  1.640625E+01  0.000000E+00
  3.906250E-01  1.679688E+01  0.000000E+00
  3.906250E-01  1.718750E+01  0.000000E+00
  3.906250E-01  1.757812E+01  0.000000E+00
  3.906250E-01  1.796875E+01  0.000000E+00
  3.906250E-01  1.835938E+01  0.000000E+00
  3.906250E-01  1.875000E+01  0.000000E+00
  3.906250E-01  1.914062E+01  0.000000E+00
  3.906250E-01  1.953125E+01  0.000000E+00
  3.906250E-01  1.992188E+01  0.000000E+00
  3.906250E-01  2.031250E+01  0.000000E+00
  3.906250E-01  2.070312E+01  0.000000E+00
  3.906250E-01  2.109375E+01  0.000000E+00
  3.906250E-01  2.148438E+01  0.000000E+00
  3.906250E-01  2.187500E+01  0.000000E+00
  3.906250E-01  2.226562E+01  0.000000E+00
  3.906250E-01  2.265625E+01  0.000000E+00
  3.906250E-01  2.304688E+01  0.000000E+00
  3.906250E-01  2.343750E+01  0.000000E+00
  3.906250E-01  2.382812E+01  0.000000E+00
  3.906250E-01  2.421875E+01  0.000000E+00
  3.906250E-01  2.460938E+01  0.000000E+00
  7.812500E-01  0.000000E+00  0.000000E+00
  7.812500E-01  3.906250E-01  0.000000E+00
  7.812500E-01  7.812500E-01  0.000000E+00
  7.812500E-01  1.171875E+00  0.000000E+00
  7.812500E-01  1.562500E+00  0.000000E+00
  7.812500E-01  1.953125E+00  0.000000E+00
  7.812500E-01  2.343750E+00  0.000000E+00
  7.812500E-01  2.734375E+00  0.000000E+00
  7.812500E-01  3.125000E+00  0.000000E+00
  7.812500E-01  3.515625E+00  0.000000E+00
  7.812500E-01  3.906250E+00  0.000000E+00
  7.812500E-01  4.296875E+00  0.000000E+00
  7.812500E-01  4.687500E+00  0.000000E+00
  7.812500E-01  5.078125E+00  0.000000E+00
  7.812500E-01  5.468750E+00  0.000000E+00
  7.812500E-01  5.859375E+00  0.000000E+00
  7.812500E-01  6.250000E+00  0.000000E+00
  7.812500E-01  6.640625E+00  0.000000E+00
  7.812500E-01  7.031250E+00  0.000000E+00
  7.812500E-01  7.421875E+00  0.000000E+00
  7.812500E-01  7.812500E+00  0.000000E+00
  7.812500E-01  8.203125E+00  0.000000E+00
  7.812500E-01  8.593750E+00  0.000000E+00
  7.812500E-01  8.984375E+00  0.000000E+00
  7.812500E-01  9.375000E+00  0.000000E+00
  7.812500E-01  9.765625E+00  0.000000E+00
  7.812500E-01  1.015625E+01  0.000000E+00
  7.812500E-01  1.054688E+01  0.000000E+00
  7.812500E-01  1.093750E+01  0.000000E+00
  7.812500E-01  1.132812E+01  0.000000E+00
  7.812500E-01  1.171875E+01  0.000000E+00
  7.812500E-01  1.210938E+01  0.000000E+00
  7.812500E-01  1.250000E+01  0.000000E+00
  7.812500E-01  1.289062E+01  0.000000E+00
  7.812500E-01  1.328125E+01  0.000000E+00
  7.812500E-01  1.367188E+01  0.000000E+00
  7.812500E-01  1.406250E+01  0.000000E+00
  7.812500E-01  1.445312E+01  0.000000E+00
  7.812500E-01  1.484375E+01  0.000000E+00
  7.812500E-01  1.523438E+01  0.000000E+00
  7.812500E-01  1.562500E+01  0.000000E+00
  7.812500E-01  1.601562E+01  0.000000E+00
  7.812500E-01  1.640625E+01  0.000000E+00
  7.812500E-01  1.679688E+01  0.000000E+00
  7.812500E-01  1.718750E+01  0.000000E+00
  7.812500E-01  1.757812E+01  0.000000E+00
  7.812500E-01  1.796875E+01  0.000000E+00
  7.812500E-01  1.835938E+01  0.000000E+00
  7.812500E-01  1.875000E+01  0.000000E+00
  7.812500E-01  1.914062E+01  0.000000E+00
  7.812500E-01  1.953125E+01  0.000000E+00
  7.812500E-01  1.992188E+01  0.000000E+00
  7.812500E-01  2.031250E+01  0.000000E+00
  7.812500E-01  2.070312E+01  0.000000E+00
  7.812500E-01  2.109375E+01  0.000000E+00
  7.812500E-01  2.148438E+01  0.000000E+00
  7.812500E-01  2.187500E+01  0.000000E+00
  7.812500E-01  2.226562E+01  0.000000E+00
  7.812500E-01  2.265625E+01  0.000000E+00
  7.812500E-01  2.304688E+01  0.000000E+00
  7.812500E-01  2.343750E+01  0.000000E+00
  7.812500E-01  2.382812E+01  0.000000E+00
  7.812500E-01  2.421875E+01  0.000000E+00
  7.812500E-01  2.460938E+01  0.000000E+00
  1.171875E+00  0.000000E+00  0.000000E+00
  1.171875E+00  3.906250E-01  0.000000E+00
  1.171875E+00  7.812500E-01  0.000000E+00
  1.171875E+00  1.171875E+00  0.000000E+00
  1.171875E+00  1.562500E+00  0.000000E+00
  1.171875E+00  1.953125E+00  0.000000E+00
  1.171875E+00  2.343750E+00  0.000000E+00
  1.171875E+00  2.734375E+00  0.000000E+00
  1.171875E+00  3.125000E+00  0.000000E+00
  1.171875E+00  3.515625E+00  0.000000E+00
  1.171875E+00  3.906250E+00  0.000000E+00
  1.171875E+00  4.296875E+00  0.000000E+00
  1.171875E+00  4.687500E+00  0.000000E+00
  1.171875E+00  5.078125E+00  0.000000E+00
  1.171875E+00  5.468750E+00  0.000000E+00
  1.171875E+00  5.859375E+00  0.000000E+00
  1.171875E+00  6.250000E+00  0.000000E+00
  1.171875E+00  6.640625E+00  0.000000E+00
  1.171875E+00  7.031250E+00  0.000000E+00
  1.171875E+00  7.421875E+00  0.000000E+00
  1.171875E+00  7.812500E+00  0.000000E+00
  1.171875E+00  8.203125E+00  0.000000E+00
  1.171875E+00  8.593750E+00  0.000000E+00
  1.171875E+00  8.984375E+00  0.000000E+00
  1.171875E+00  9.375000E+00  0.000000E+00
  1.171875E+00  9.765625E+00  0.000000E+00
  1.171875E+00  1.015625E+01  0.000000E+00
  1.171875E+00  1.054688E+01  0.000000E+00
  1.171875E+00  1.093750E+01  0.000000E+00
  1.171875E+00  1.132812E+01  0.000000E+00
  1.171875E+00  1.171875E+01  0.000000E+00
  1.171875E+00  1.210938E+01  0.000000E+00
  1.171875E+00  1.250000E+01  0.000000E+00
  1.171875E+00  1.289062E+01  0.000000E+00
  1.171875E+00  1.328125E+01  0.000000E+00
  1.171875E+00  1.367188E+01  0.000000E+00
  1.171875E+00  1.406250E+01  0.000000E+00
  1.171875E+00  1.445312E+01  0.000000E+00
[...]
POINT_DATA   4096
SCALARS CON  float  1
LOOKUP_TABLE default
  4.714615E-01
  4.722320E-01
  4.788333E-01
  4.751379E-01
  4.755171E-01
  4.682997E-01
  4.704255E-01
  4.686040E-01
  4.751228E-01
  4.731004E-01
  4.752110E-01
  4.681122E-01
  4.681542E-01
  4.632102E-01
  4.679772E-01
  4.676344E-01
  4.745657E-01
  4.729033E-01
  4.758970E-01
  4.697954E-01
  4.700838E-01
  4.638205E-01
  4.653176E-01
  4.600862E-01
  4.620257E-01
  4.579386E-01
  4.630471E-01
  4.636530E-01
  4.722688E-01
  4.721498E-01
  4.756992E-01
  4.695243E-01
  4.704628E-01
  4.666320E-01
  4.720281E-01
  4.703857E-01
  4.736305E-01
  4.673493E-01
  4.672533E-01
  4.611142E-01
  4.636044E-01
  4.599527E-01
  4.630597E-01
  4.584674E-01
  4.609256E-01
  4.580192E-01
  4.651276E-01
  4.681506E-01
  4.787385E-01
  4.788225E-01
  4.799152E-01
  4.688709E-01
  4.644921E-01
  4.578556E-01
  4.653626E-01
  4.713507E-01
  4.849177E-01
  4.866463E-01
  4.888250E-01
  4.791290E-01
  4.754783E-01
  4.665390E-01
  4.676060E-01
  4.647400E-01
  4.718394E-01
  4.743167E-01
  4.824821E-01
  4.811763E-01
  4.806083E-01
  4.711048E-01
  4.684864E-01
  4.639563E-01
  4.689869E-01
  4.695908E-01
  4.749397E-01
  4.722033E-01
  4.734070E-01
  4.679470E-01
  4.687826E-01
  4.654400E-01
  4.699862E-01
  4.698528E-01
  4.747194E-01
  4.712404E-01
  4.712276E-01
  4.647887E-01
  4.655012E-01
  4.623321E-01
  4.660389E-01
  4.638894E-01
  4.672531E-01
  4.651814E-01
  4.698932E-01
  4.693810E-01
  4.741479E-01
  4.714973E-01
  4.730542E-01
  4.678800E-01
  4.685690E-01
  4.641375E-01
  4.665248E-01
  4.639635E-01
  4.674642E-01
  4.644192E-01
  4.657574E-01
  4.600293E-01
  4.598325E-01
  4.547283E-01
  4.570766E-01
  4.559257E-01
  4.632808E-01
  4.672544E-01
  4.773057E-01
  4.780827E-01
  4.788312E-01
  4.692019E-01
  4.659373E-01
  4.625043E-01
  4.719711E-01
  4.794177E-01
  4.904263E-01
  4.886428E-01
  4.861627E-01
  4.752832E-01
  4.718458E-01
  4.655772E-01
  4.675335E-01
  4.656307E-01
  4.639079E-01
  4.733172E-01
  4.829279E-01
  4.844217E-01
  4.808787E-01
  4.717720E-01
  4.661320E-01
  4.631079E-01
  4.663757E-01
  4.695361E-01
  4.738268E-01
  4.738196E-01
  4.735565E-01
  4.702250E-01
  4.691738E-01
  4.674728E-01
  4.692219E-01
  4.697785E-01
  4.719495E-01
  4.709702E-01
  4.708171E-01
  4.682266E-01
  4.677703E-01
  4.656710E-01
  4.657145E-01
  4.639974E-01
  4.647480E-01
  4.642404E-01
  4.660236E-01
  4.653368E-01
  4.656153E-01
  4.634088E-01
  4.638699E-01
  4.639315E-01
  4.671259E-01
  4.680657E-01
  4.693859E-01
  4.670391E-01
  4.658460E-01
  4.626713E-01
  4.615056E-01
  4.581349E-01
  4.565744E-01
  4.537128E-01
  4.545923E-01
  4.562186E-01
  4.625938E-01
  4.687437E-01
  4.762100E-01
  4.781430E-01
  4.769818E-01
  4.701877E-01
  4.656835E-01
  4.636235E-01
  4.695813E-01
  4.776394E-01
  4.868900E-01
  4.885618E-01
  4.850664E-01
  4.746247E-01
  4.651848E-01
  4.562632E-01
  4.539376E-01
  4.553103E-01
  4.636071E-01
  4.740272E-01
  4.806822E-01
  4.848774E-01
  4.783661E-01
  4.701104E-01
  4.595546E-01
  4.570711E-01
  4.575772E-01
  4.650740E-01
  4.702207E-01
  4.761627E-01
  4.752866E-01
  4.740486E-01
  4.682480E-01
  4.665974E-01
  4.648991E-01
  4.691397E-01
  4.711937E-01
  4.746487E-01
  4.723642E-01
  4.715404E-01
  4.680332E-01
  4.689853E-01
  4.677209E-01
  4.689383E-01
  4.658232E-01
  4.651060E-01
  4.621863E-01
  4.641144E-01
  4.644639E-01
  4.677953E-01
  4.665301E-01
  4.663877E-01
  4.623463E-01
  4.622405E-01
  4.612704E-01
  4.652888E-01
  4.665126E-01
  4.688596E-01
  4.652460E-01
  4.628269E-01
  4.579009E-01
  4.584154E-01
  4.586084E-01
  4.635008E-01
  4.658712E-01
  4.710953E-01
  4.723105E-01
  4.743981E-01
  4.704597E-01
  4.677246E-01
  4.632021E-01
  4.659713E-01
  4.704355E-01
  4.796879E-01
  4.829071E-01
  4.831846E-01
  4.751743E-01
  4.685337E-01
  4.603831E-01
  4.580343E-01
  4.555069E-01
  4.591618E-01
  4.596124E-01
  4.727386E-01
  4.767125E-01
  4.818195E-01
  4.726238E-01
  4.671526E-01
  4.559823E-01
  4.568039E-01
  4.556156E-01
  4.647041E-01
  4.668612E-01
  4.741299E-01
  4.710064E-01
  4.726825E-01
  4.664205E-01
  4.685097E-01
  4.654072E-01
  4.711962E-01
  4.701960E-01
  4.755484E-01
  4.719880E-01
  4.741614E-01
  4.681545E-01
  4.691100E-01
  4.630407E-01
  4.646874E-01
  4.598400E-01
  4.629939E-01
  4.596897E-01
  4.640200E-01
  4.611992E-01
  4.653382E-01
  4.620035E-01
  4.659333E-01
  4.630104E-01
  4.676652E-01
  4.651531E-01
  4.694767E-01
  4.657782E-01
  4.682090E-01
  4.624199E-01
  4.637343E-01
  4.590922E-01
  4.638317E-01
  4.633559E-01
  4.706971E-01
  4.698003E-01
  4.743833E-01
  4.700403E-01
  4.716656E-01
  4.651025E-01
  4.654566E-01
  4.595788E-01
  4.633057E-01
  4.628791E-01
  4.716465E-01
  4.726679E-01
  4.779360E-01
  4.718526E-01
  4.697976E-01
  4.592655E-01
  4.569580E-01
  4.506690E-01
  4.562714E-01
  4.647525E-01
  4.731921E-01
  4.731290E-01
  4.779836E-01
  4.690779E-01
  4.651248E-01
  4.534103E-01
  4.540906E-01
  4.516783E-01
  4.614070E-01
  4.638697E-01
  4.729080E-01
  4.699491E-01
  4.720581E-01
  4.644284E-01
  4.666092E-01
  4.636843E-01
  4.720935E-01
  4.726908E-01
  4.794790E-01
  4.741853E-01
  4.746464E-01
  4.661689E-01
  4.672961E-01
  4.615120E-01
  4.647398E-01
  4.595611E-01
  4.629954E-01
  4.595031E-01
  4.665952E-01
  4.668053E-01
  4.745940E-01
  4.707811E-01
  4.718122E-01
  4.629606E-01
  4.642133E-01
  4.608047E-01
  4.687627E-01
  4.684469E-01
  4.737868E-01
  4.673769E-01
  4.683161E-01
  4.630612E-01
  4.698583E-01
  4.704692E-01
  4.784037E-01
  4.743618E-01
  4.754549E-01
  4.668132E-01
  4.670500E-01
  4.599188E-01
  4.621801E-01
  4.575704E-01
  4.633747E-01
  4.625873E-01
  4.702239E-01
  4.674972E-01
  4.706216E-01
  4.640798E-01
  4.665487E-01
  4.619482E-01
  4.663143E-01
  4.621663E-01
  4.667563E-01
  4.635509E-01
  4.702959E-01
  4.700453E-01
  4.736147E-01
  4.671499E-01
  4.653686E-01
  4.578134E-01
  4.594448E-01
  4.576452E-01
  4.643091E-01
  4.646042E-01
  4.699132E-01
  4.664825E-01
  4.682437E-01
  4.638357E-01
  4.678473E-01
  4.675298E-01
  4.749249E-01
  4.751337E-01
  4.797317E-01
  4.748460E-01
  4.741186E-01
  4.655604E-01
  4.637243E-01
  4.568105E-01
  4.585614E-01
  4.560107E-01
  4.616136E-01
  4.616325E-01
  4.683713E-01
  4.680482E-01
  4.730775E-01
  4.700198E-01
  4.725323E-01
  4.685725E-01
  4.720824E-01
  4.698228E-01
  4.739035E-01
  4.701005E-01
  4.712242E-01
  4.650695E-01
  4.665695E-01
  4.642302E-01
  4.712238E-01
  4.726976E-01
  4.790110E-01
  4.751222E-01
  4.746628E-01
  4.665990E-01
  4.660701E-01
  4.606302E-01
  4.628047E-01
  4.589353E-01
  4.619548E-01
  4.591267E-01
  4.635802E-01
  4.619904E-01
  4.669640E-01
  4.650136E-01
  4.688637E-01
  4.651327E-01
  4.669754E-01
  4.621177E-01
  4.650023E-01
  4.670947E-01
  4.678637E-01
  4.677223E-01
  4.707097E-01
  4.690579E-01
  4.680429E-01
  4.632931E-01
  4.625865E-01
  4.615060E-01
  4.655359E-01
  4.674326E-01
  4.709691E-01
  4.692046E-01
  4.683437E-01
  4.646092E-01
  4.660604E-01
  4.680899E-01
  4.753048E-01
  4.789666E-01
  4.818441E-01
  4.771238E-01
  4.722098E-01
  4.642886E-01
  4.615007E-01
  4.588152E-01
  4.610766E-01
  4.612859E-01
  4.645278E-01
  4.655315E-01
  4.706832E-01
  4.738273E-01
  4.788315E-01
  4.778507E-01
  4.763820E-01
  4.707514E-01
  4.697026E-01
  4.689791E-01
  4.731446E-01
  4.736046E-01
  4.740470E-01
  4.692038E-01
  4.675459E-01
  4.660160E-01
  4.707169E-01
  4.735530E-01
  4.770164E-01
  4.738394E-01
  4.711629E-01
  4.658423E-01
  4.651819E-01
  4.632048E-01
  4.646977E-01
  4.636166E-01
  4.659080E-01
  4.656334E-01
  4.674854E-01
  4.649165E-01
  4.643322E-01
  4.619798E-01
  4.650793E-01
  4.673220E-01
  4.720363E-01
  4.712996E-01
  4.708711E-01
  4.616917E-01
  4.626392E-01
  4.652652E-01
  4.682620E-01
  4.705845E-01
  4.714934E-01
  4.714235E-01
  4.710026E-01
  4.711121E-01
  4.716640E-01
  4.721532E-01
  4.714792E-01
  4.695308E-01
  4.670976E-01
  4.660594E-01
  4.675051E-01
  4.714233E-01
  4.760144E-01
  4.792141E-01
  4.792193E-01
  4.759455E-01
  4.703827E-01
  4.645776E-01
  4.602380E-01
  4.587898E-01
  4.602362E-01
  4.637072E-01
  4.673411E-01
  4.699733E-01
  4.711133E-01
  4.714219E-01
  4.714044E-01
  4.717170E-01
  4.725789E-01
  4.743089E-01
  4.762710E-01
  4.774324E-01
  4.763905E-01
  4.730503E-01
  4.683965E-01
  4.645679E-01
  4.630304E-01
  4.642838E-01
  4.670634E-01
  4.696808E-01
  4.705295E-01
  4.696981E-01
  4.682620E-01
  4.677554E-01
  4.683347E-01
  4.693232E-01
  4.695114E-01
  4.688297E-01
  4.677241E-01
  4.670573E-01
  4.668131E-01
  4.668903E-01
  4.669516E-01
  4.672406E-01
  4.675561E-01
  4.676118E-01
  4.666331E-01
  4.647215E-01
  4.625855E-01
  4.620267E-01
  4.604045E-01
  4.632496E-01
  4.673871E-01
  4.723338E-01
  4.740143E-01
  4.742060E-01
  4.722783E-01
  4.720484E-01
  4.722608E-01
  4.742010E-01
  4.741782E-01
  4.730272E-01
  4.691001E-01
  4.664037E-01
  4.652413E-01
  4.686724E-01
  4.734011E-01
  4.783675E-01
  4.785554E-01
  4.752466E-01
  4.684147E-01
  4.634754E-01
  4.610178E-01
  4.635548E-01
  4.674323E-01
  4.720680E-01
  4.735310E-01
  4.738266E-01
  4.723925E-01
  4.726318E-01
  4.725321E-01
  4.731459E-01
  4.718416E-01
  4.712573E-01
  4.704919E-01
  4.718578E-01
  4.722077E-01
  4.720287E-01
  4.688452E-01
  4.659405E-01
  4.632852E-01
  4.640240E-01
  4.654525E-01
  4.677333E-01
  4.675013E-01
  4.672119E-01
  4.664856E-01
  4.684058E-01
  4.702340E-01
  4.722810E-01
  4.716843E-01
  4.714443E-01
  4.711195E-01
  4.730354E-01
  4.736531E-01
  4.732805E-01
  4.699265E-01
  4.676177E-01
  4.663390E-01
  4.681414E-01
  4.689570E-01
  4.686445E-01
  4.649718E-01
  4.566447E-01
  4.581636E-01
  4.616112E-01
  4.666900E-01
  4.711906E-01
  4.744735E-01
  4.752908E-01
  4.749833E-01
  4.740223E-01
  4.739110E-01
  4.736398E-01
  4.729347E-01
  4.704678E-01
  4.676377E-01
  4.653615E-01
  4.657410E-01
  4.681283E-01
  4.719223E-01
  4.744316E-01
  4.748316E-01
  4.720644E-01
  4.679077E-01
  4.635554E-01
  4.617218E-01
  4.628991E-01
  4.674751E-01
  4.726645E-01
  4.763585E-01
  4.759829E-01
  4.726182E-01
  4.676840E-01
  4.643888E-01
  4.635393E-01
  4.659688E-01
  4.697570E-01
  4.735271E-01
  4.744380E-01
  4.723086E-01
  4.674149E-01
  4.628289E-01
  4.599961E-01
  4.603025E-01
  4.620132E-01
  4.641212E-01
  4.648154E-01
  4.651007E-01
  4.654927E-01
  4.676907E-01
  4.706506E-01
  4.735226E-01
  4.739540E-01
  4.724253E-01
  4.696458E-01
  4.683457E-01
  4.688721E-01
  4.714337E-01
  4.737859E-01
  4.752745E-01
  4.746202E-01
  4.727154E-01
  4.692269E-01
  4.653409E-01
  4.610238E-01
  4.580185E-01
  4.596840E-01
  4.599974E-01
  4.613166E-01
  4.670637E-01
  4.702680E-01
  4.733671E-01
  4.713490E-01
  4.702407E-01
  4.675556E-01
  4.690203E-01
  4.694996E-01
  4.717839E-01
  4.697381E-01
  4.679155E-01
  4.634301E-01
  4.631367E-01
  4.638129E-01
  4.693088E-01
  4.725554E-01
  4.753551E-01
  4.719813E-01
  4.683907E-01
  4.629759E-01
  4.629813E-01
  4.646948E-01
  4.712265E-01
  4.751508E-01
  4.784861E-01
  4.759814E-01
  4.737005E-01
  4.691854E-01
  4.681802E-01
  4.659465E-01
  4.664159E-01
  4.648510E-01
  4.660554E-01
  4.654588E-01
  4.670163E-01
  4.654360E-01
  4.652361E-01
  4.626922E-01
  4.634061E-01
  4.631637E-01
  4.658176E-01
  4.657736E-01
  4.673056E-01
  4.666238E-01
  4.691934E-01
  4.701855E-01
  4.726047E-01
  4.704352E-01
  4.686793E-01
  4.650798E-01
  4.665236E-01
  4.687577E-01
  4.742970E-01
  4.758812E-01
  4.769674E-01
  4.739770E-01
  4.732566E-01
  4.708749E-01
  4.706000E-01
  4.667787E-01
  4.641163E-01
  4.580170E-01
  4.610716E-01
  4.620733E-01
  4.669668E-01
  4.682143E-01
  4.715240E-01
  4.697429E-01
  4.700315E-01
  4.668505E-01
  4.677505E-01
  4.660052E-01
  4.674494E-01
  4.647816E-01
  4.649731E-01
  4.624404E-01
  4.647405E-01
  4.653065E-01
  4.700412E-01
  4.711566E-01
  4.742225E-01
  4.717840E-01
  4.705352E-01
  4.648316E-01
  4.632441E-01
  4.610412E-01
  4.655225E-01
  4.687245E-01
  4.745073E-01
  4.736679E-01
  4.724197E-01
  4.658610E-01
  4.634047E-01
  4.603695E-01
  4.636539E-01
  4.652685E-01
  4.697063E-01
  4.685639E-01
  4.682297E-01
  4.633303E-01
  4.624474E-01
  4.601965E-01
  4.631050E-01
  4.634005E-01
  4.665624E-01
  4.656199E-01
  4.678110E-01
  4.672038E-01
  4.704778E-01
  4.700379E-01
  4.713490E-01
  4.672891E-01
  4.654456E-01
  4.609809E-01
  4.621635E-01
  4.629086E-01
  4.690764E-01
  4.723384E-01
  4.775614E-01
  4.767754E-01
  4.763910E-01
  4.704202E-01
  4.669867E-01
  4.609720E-01
  4.600905E-01
  4.646639E-01
  4.650527E-01
  4.643366E-01
  4.674258E-01
  4.680387E-01
  4.698586E-01
  4.672904E-01
  4.662504E-01
  4.631366E-01
  4.640127E-01
  4.636115E-01
  4.659071E-01
  4.647842E-01
  4.651939E-01
  4.629620E-01
  4.644596E-01
  4.654209E-01
  4.705833E-01
  4.733817E-01
  4.769839E-01
  4.749572E-01
  4.725871E-01
  4.664415E-01
  4.639070E-01
  4.615294E-01
  4.644535E-01
  4.662457E-01
  4.700828E-01
  4.697000E-01
  4.703912E-01
  4.680822E-01
  4.685935E-01
  4.667130E-01
  4.670061E-01
  4.643328E-01
  4.644138E-01
  4.629444E-01
  4.651254E-01
  4.652012E-01
  4.673736E-01
  4.662649E-01
  4.674144E-01
  4.664103E-01
  4.685041E-01
  4.681610E-01
  4.699095E-01
  4.685013E-01
  4.691908E-01
  4.668953E-01
  4.664538E-01
  4.628317E-01
  4.620196E-01
  4.603930E-01
  4.638321E-01
  4.665700E-01
  4.716979E-01
  4.722443E-01
  4.728812E-01
  4.696416E-01
  4.692256E-01
  4.673257E-01
  4.686499E-01
  4.671660E-01
  4.674045E-01
  4.662720E-01
  4.679065E-01
  4.672671E-01
  4.673295E-01
  4.670464E-01
  4.683618E-01
  4.685302E-01
  4.688646E-01
  4.673686E-01
  4.664154E-01
  4.644139E-01
  4.635958E-01
  4.624022E-01
  4.633719E-01
  4.648258E-01
  4.682674E-01
  4.707502E-01
  4.735383E-01
  4.746465E-01
  4.762189E-01
  4.757991E-01
  4.743229E-01
  4.693035E-01
  4.638360E-01
  4.584186E-01
  4.572214E-01
  4.586457E-01
  4.628320E-01
  4.651233E-01
  4.659133E-01
  4.638470E-01
  4.629516E-01
  4.629620E-01
  4.659164E-01
  4.684020E-01
  4.705881E-01
  4.696499E-01
  4.681486E-01
  4.655390E-01
  4.649719E-01
  4.647583E-01
  4.663566E-01
  4.670852E-01
  4.684761E-01
  4.684594E-01
  4.689933E-01
  4.679838E-01
  4.672726E-01
  4.650155E-01
  4.637110E-01
  4.621288E-01
  4.627320E-01
  4.634571E-01
  4.656346E-01
  4.666137E-01
  4.680248E-01
  4.678692E-01
  4.680359E-01
  4.662940E-01
  4.646323E-01
  4.618471E-01
  4.611936E-01
  4.615349E-01
  4.643763E-01
  4.755183E-01
  4.736211E-01
  4.706711E-01
  4.679622E-01
  4.670938E-01
  4.669646E-01
  4.673647E-01
  4.670349E-01
  4.666817E-01
  4.658363E-01
  4.653308E-01
  4.645451E-01
  4.644302E-01
  4.647010E-01
  4.663266E-01
  4.684694E-01
  4.713445E-01
  4.737230E-01
  4.759217E-01
  4.768477E-01
  4.766263E-01
  4.740176E-01
  4.698455E-01
  4.645463E-01
  4.605103E-01
  4.582649E-01
  4.585719E-01
  4.598107E-01
  4.616274E-01
  4.629780E-01
  4.649164E-01
  4.669900E-01
  4.693277E-01
  4.701118E-01
  4.694435E-01
  4.673089E-01
  4.659515E-01
  4.657503E-01
  4.671416E-01
  4.682328E-01
  4.688480E-01
  4.685271E-01
  4.688812E-01
  4.696186E-01
  4.707091E-01
  4.701686E-01
  4.680926E-01
  4.644839E-01
  4.615635E-01
  4.599931E-01
  4.610687E-01
  4.638774E-01
  4.681769E-01
  4.717236E-01
  4.734977E-01
  4.716918E-01
  4.672747E-01
  4.612592E-01
  4.567483E-01
  4.550353E-01
  4.575482E-01
  4.627799E-01
  4.693139E-01
  4.738937E-01
  4.774521E-01
  4.766613E-01
  4.729946E-01
  4.678418E-01
  4.654958E-01
  4.652442E-01
  4.675620E-01
  4.691002E-01
  4.700516E-01
  4.684539E-01
  4.663404E-01
  4.633168E-01
  4.623970E-01
  4.631139E-01
  4.668472E-01
  4.704313E-01
  4.733625E-01
  4.732541E-01
  4.727091E-01
  4.718796E-01
  4.727688E-01
  4.723854E-01
  4.703793E-01
  4.649357E-01
  4.596366E-01
  4.557113E-01
  4.560041E-01
  4.579217E-01
  4.606530E-01
  4.611265E-01
  4.614424E-01
  4.619555E-01
  4.654496E-01
  4.696258E-01
  4.737671E-01
  4.742925E-01
  4.724891E-01
  4.683081E-01
  4.653372E-01
  4.633095E-01
  4.639152E-01
  4.650436E-01
  4.674951E-01
  4.689693E-01
  4.702163E-01
  4.689864E-01
  4.667310E-01
  4.627693E-01
  4.602972E-01
  4.594112E-01
  4.623097E-01
  4.665459E-01
  4.714233E-01
  4.730249E-01
  4.719132E-01
  4.674504E-01
  4.631378E-01
  4.589286E-01
  4.568250E-01
  4.553663E-01
  4.566282E-01
  4.598962E-01
  4.665345E-01
  4.729143E-01
  4.832013E-01
  4.789804E-01
  4.738644E-01
  4.676300E-01
  4.651260E-01
  4.633895E-01
  4.645633E-01
  4.645574E-01
  4.657736E-01
  4.648735E-01
  4.649898E-01
  4.634612E-01
  4.639976E-01
  4.640311E-01
  4.664875E-01
  4.674871E-01
  4.691960E-01
  4.683137E-01
  4.685868E-01
  4.678278E-01
  4.692806E-01
  4.690696E-01
  4.692050E-01
  4.663601E-01
  4.645231E-01
  4.618910E-01
  4.620773E-01
  4.616252E-01
  4.629811E-01
  4.631405E-01
  4.658557E-01
  4.683533E-01
  4.727034E-01
  4.739205E-01
  4.738077E-01
  4.698574E-01
  4.671983E-01
  4.644907E-01
  4.649915E-01
  4.646566E-01
  4.657986E-01
  4.656496E-01
  4.679654E-01
  4.694507E-01
  4.716194E-01
  4.696430E-01
  4.663865E-01
  4.605699E-01
  4.578829E-01
  4.570619E-01
  4.612313E-01
  4.659133E-01
  4.719530E-01
  4.741623E-01
  4.744533E-01
  4.699178E-01
  4.650530E-01
  4.588475E-01
  4.563589E-01
  4.559123E-01
  4.609309E-01
  4.674502E-01
  4.762509E-01
  4.812290E-01
  4.779591E-01
  4.751460E-01
  4.726871E-01
  4.660444E-01
  4.643384E-01
  4.617447E-01
  4.642788E-01
  4.637938E-01
  4.658890E-01
  4.634753E-01
  4.636848E-01
  4.607199E-01
  4.623576E-01
  4.623928E-01
  4.668587E-01
  4.671907E-01
  4.684597E-01
  4.639757E-01
  4.626027E-01
  4.601567E-01
  4.641204E-01
  4.660305E-01
  4.697977E-01
  4.672393E-01
  4.663000E-01
  4.627227E-01
  4.646879E-01
  4.647062E-01
  4.676078E-01
  4.656495E-01
  4.665569E-01
  4.654942E-01
  4.700386E-01
  4.721781E-01
  4.762728E-01
  4.738230E-01
  4.718307E-01
  4.652919E-01
  4.629835E-01
  4.594358E-01
  4.616188E-01
  4.623358E-01
  4.673199E-01
  4.684517E-01
  4.710663E-01
  4.676063E-01
  4.653587E-01
  4.593037E-01
  4.582717E-01
  4.569635E-01
  4.619876E-01
  4.650151E-01
  4.703740E-01
  4.696097E-01
  4.696723E-01
  4.656186E-01
  4.661248E-01
  4.649082E-01
  4.676477E-01
  4.664212E-01
  4.681422E-01
  4.674221E-01
  4.719425E-01
  4.739954E-01
  4.760027E-01
  4.707827E-01
  4.709502E-01
  4.651977E-01
  4.660595E-01
  4.613725E-01
  4.629821E-01
  4.588211E-01
  4.611494E-01
  4.581657E-01
  4.619904E-01
  4.605029E-01
  4.654694E-01
  4.642911E-01
  4.682459E-01
  4.645240E-01
  4.652209E-01
  4.592439E-01
  4.602593E-01
  4.574922E-01
  4.630163E-01
  4.636290E-01
  4.697628E-01
  4.684002E-01
  4.719693E-01
  4.691850E-01
  4.725279E-01
  4.695522E-01
  4.721768E-01
  4.688841E-01
  4.728135E-01
  4.719683E-01
  4.770494E-01
  4.738548E-01
  4.737482E-01
  4.659366E-01
  4.650341E-01
  4.604975E-01
  4.640491E-01
  4.623107E-01
  4.665630E-01
  4.650903E-01
  4.704566E-01
  4.698957E-01
  4.737408E-01
  4.684243E-01
  4.666119E-01
  4.585013E-01
  4.585929E-01
  4.559068E-01
  4.617361E-01
  4.624617E-01
  4.687073E-01
  4.677697E-01
  4.719495E-01
  4.696602E-01
  4.734178E-01
  4.711313E-01
  4.747462E-01
  4.720019E-01
  4.753015E-01
  4.728101E-01
  4.765896E-01
  4.738446E-01
  4.666822E-01
  4.652003E-01
  4.694870E-01
  4.653130E-01
  4.674943E-01
  4.628448E-01
  4.655103E-01
  4.612561E-01
  4.638264E-01
  4.594499E-01
  4.625257E-01
  4.596515E-01
  4.649838E-01
  4.641661E-01
  4.699315E-01
  4.666703E-01
  4.675978E-01
  4.597522E-01
  4.596651E-01
  4.558176E-01
  4.624670E-01
  4.637366E-01
  4.707665E-01
  4.681928E-01
  4.710470E-01
  4.673465E-01
  4.720283E-01
  4.701052E-01
  4.739771E-01
  4.691430E-01
  4.708765E-01
  4.668169E-01
  4.713915E-01
  4.694120E-01
  4.732801E-01
  4.681943E-01
  4.687126E-01
  4.621127E-01
  4.635743E-01
  4.599113E-01
  4.652278E-01
  4.651299E-01
  4.724251E-01
  4.714620E-01
  4.749490E-01
  4.686666E-01
  4.679413E-01
  4.607006E-01
  4.623813E-01