# vtk DataFile Version 2.0
title
ASCII
DATASET STRUCTURED_GRID
DIMENSIONS   64   64    1
POINTS   4096  float
  0.000000E+00  0.000000E+00  0.000000E+00
  0.000000E+00  3.906250E-01  0.000000E+00
  0.000000E+00  7.812500E-01  0.000000E+00
  0.000000E+00  1.171875E+00  0.000000E+00
  0.000000E+00  1.562500E+00  0.000000E+00
  0.000000E+00  1.953125E+00  0.000000E+00
  0.000000E+00  2.343750E+00  0.000000E+00
  0.000000E+00  2.734375E+00  0.000000E+00
  0.000000E+00  3.125000E+00  0.000000E+00
  0.000000E+00  3.515625E+00  0.000000E+00
  0.000000E+00  3.906250E+00  0.000000E+00
  0.000000E+00  4.296875E+00  0.000000E+00
  0.000000E+00  4.687500E+00  0.000000E+00
  0.000000E+00  5.078125E+00  0.000000E+00
  0.000000E+00  5.468750E+00  0.000000E+00
  0.000000E+00  5.859375E+00  0.000000E+00
  0.000000E+00  6.250000E+00  0.000000E+00
  0.000000E+00  6.640625E+00  0.000000E+00
  0.000000E+00  7.031250E+00  0.000000E+00
  0.000000E+00  7.421875E+00  0.000000E+00
  0.000000E+00  7.812500E+00  0.000000E+00
  0.000000E+00  8.203125E+00  0.000000E+00
  0.000000E+00  8.593750E+00  0.000000E+00
  0.000000E+00  8.984375E+00  0.000000E+00
  0.000000E+00  9.375000E+00  0.000000E+00
  0.000000E+00  9.765625E+00  0.000000E+00
  0.000000E+00  1.015625E+01  0.000000E+00
  0.000000E+00  1.054688E+01  0.000000E+00
  0.000000E+00  1.093750E+01  0.000000E+00
  0.000000E+00  1.132812E+01  0.000000E+00
  0.000000E+00  1.171875E+01  0.000000E+00
  0.000000E+00  1.210938E+01  0.000000E+00
  0.000000E+00  1.250000E+01  0.000000E+00
  0.000000E+00  1.289062E+01  0.000000E+00
  0.000000E+00  1.328125E+01  0.000000E+00
  0.000000E+00  1.367188E+01  0.000000E+00
  0.000000E+00  1.406250E+01  0.000000E+00
  0.000000E+00  1.445312E+01  0.000000E+00
  0.000000E+00  1.484375E+01  0.000000E+00
  0.000000E+00  1.523438E+01  0.000000E+00
  0.000000E+00  1.562500E+01  0.000000E+00
  0.000000E+00  1.601562E+01  0.000000E+00
  0.000000E+00  1.640625E+01  0.000000E+00
  0.000000E+00  1.679688E+01  0.000000E+00
  0.000000E+00  1.718750E+01  0.000000E+00
  0.000000E+00  1.757812E+01  0.000000E+00
  0.000000E+00  1.796875E+01  0.000000E+00
  0.000000E+00  1.835938E+01  0.000000E+00
  0.000000E+00  1.875000E+01  0.000000E+00
  0.000000E+00  1.914062E+01  0.000000E+00
  0.000000E+00  1.953125E+01  0.000000E+00
  0.000000E+00  1.992188E+01  0.000000E+00
  0.000000E+00  2.031250E+01  0.000000E+00
  0.000000E+00  2.070312E+01  0.000000E+00
  0.000000E+00  2.109375E+01  0.000000E+00
  0.000000E+00  2.148438E+01  0.000000E+00
  0.000000E+00  2.187500E+01  0.000000E+00
  0.000000E+00  2.226562E+01  0.000000E+00
  0.000000E+00  2.265625E+01  0.000000E+00
  0.000000E+00  2.304688E+01  0.000000E+00
  0.000000E+00  2.343750E+01  0.000000E+00
  0.000000E+00  2.382812E+01  0.000000E+00
  0.000000E+00  2.421875E+01  0.000000E+00
  0.000000E+00  2.460938E+01  0.000000E+00
  3.906250E-01  0.000000E+00  0.000000E+00
  3.906250E-01  3.906250E-01  0.000000E+00
  3.906250E-01  7.812500E-01  0.000000E+00
  3.906250E-01  1.171875E+00  0.000000E+00
  3.906250E-01  1.562500E+00  0.000000E+00
  3.906250E-01  1.953125E+00  0.000000E+00
  3.906250E-01  2.343750E+00  0.000000E+00
  3.906250E-01  2.734375E+00  0.000000E+00
  3.906250E-01  3.125000E+00  0.000000E+00
  3.906250E-01  3.515625E+00  0.000000E+00
  3.906250E-01  3.906250E+00  0.000000E+00
  3.906250E-01  4.296875E+00  0.000000E+00
  3.906250E-01  4.687500E+00  0.000000E+00
  3.906250E-01  5.078125E+00  0.000000E+00
  3.906250E-01  5.468750E+00  0.000000E+00
  3.906250E-01  5.859375E+00  0.000000E+00
  3.906250E-01  6.250000E+00  0.000000E+00
  3.906250E-01  6.640625E+00  0.000000E+00
  3.906250E-01  7.031250E+00  0.000000E+00
  3.906250E-01  7.421875E+00  0.000000E+00
  3.906250E-01  7.812500E+00  0.000000E+00
  3.906250E-01  8.203125E+00  0.000000E+00
  3.906250E-01  8.593750E+00  0.000000E+00
  3.906250E-01  8.984375E+00  0.000000E+00
  3.906250E-01  9.375000E+00  0.000000E+00
  3.906250E-01  9.765625E+00  0.000000E+00
  3.906250E-01  1.015625E+01  0.000000E+00
  3.906250E-01  1.054688E+01  0.000000E+00
  3.906250E-01  1.093750E+01  0.000000E+00
  3.906250E-01  1.132812E+01  0.000000E+00
  3.906250E-01  1.171875E+01  0.000000E+00
  3.906250E-01  1.210938E+01  0.000000E+00
  3.906250E-01  1.250000E+01  0.000000E+00
  3.906250E-01  1.289062E+01  0.000000E+00
  3.906250E-01  1.328125E+01  0.000000E+00
  3.906250E-01  1.367188E+01  0.000000E+00
  3.906250E-01  1.406250E+01  0.000000E+00
  3.906250E-01  1.445312E+01  0.000000E+00
  3.906250E-01  1.484375E+01  0.000000E+00
  3.906250E-01  1.523438E+01  0.000000E+00
  3.906250E-01  1.562500E+01  0.000000E+00
  3.906250E-01  1.601562E+01  0.000000E+00
  3.906250E-01  1.640625E+01  0.000000E+00
  3.906250E-01  1.679688E+01  0.000000E+00
  3.906250E-01  1.718750E+01  0.000000E+00
  3.906250E-01  1.757812E+01  0.000000E+00
  3.906250E-01  1.796875E+01  0.000000E+00
  3.906250E-01  1.835938E+01  0.000000E+00
  3.906250E-01  1.875000E+01  0.000000E+00
  3.906250E-01  1.914062E+01  0.000000E+00
  3.906250E-01  1.953125E+01  0.000000E+00
  3.906250E-01  1.992188E+01  0.000000E+00
  3.906250E-01  2.031250E+01  0.000000E+00
  3.906250E-01  2.070312E+01  0.000000E+00
  3.906250E-01  2.109375E+01  0.000000E+00
  3.906250E-01  2.148438E+01  0.000000E+00
  3.906250E-01  2.187500E+01  0.000000E+00
  3.906250E-01  2.226562E+01  0.000000E+00
  3.906250E-01  2.265625E+01  0.000000E+00
  3.906250E-01  2.304688E+01  0.000000E+00
  3.906250E-01  2.343750E+01  0.000000E+00
  3.906250E-01  2.382812E+01  0.000000E+00
  3.906250E-01  2.421875E+01  0.000000E+00
  3.906250E-01  2.460938E+01  0.000000E+00
  7.812500E-01  0.000000E+00  0.000000E+00
  7.812500E-01  3.906250E-01  0.000000E+00
  7.812500E-01  7.812500E-01  0.000000E+00
  7.812500E-01  1.171875E+00  0.000000E+00
  7.812500E-01  1.562500E+00  0.000000E+00
  7.812500E-01  1.953125E+00  0.000000E+00
  7.812500E-01  2.343750E+00  0.000000E+00
  7.812500E-01  2.734375E+00  0.000000E+00
  7.812500E-01  3.125000E+00  0.000000E+00
  7.812500E-01  3.515625E+00  0.000000E+00
  7.812500E-01  3.906250E+00  0.000000E+00
  7.812500E-01  4.296875E+00  0.000000E+00
  7.812500E-01  4.687500E+00  0.000000E+00
  7.812500E-01  5.078125E+00  0.000000E+00
  7.812500E-01  5.468750E+00  0.000000E+00
  7.812500E-01  5.859375E+00  0.000000E+00
  7.812500E-01  6.250000E+00  0.000000E+00
  7.812500E-01  6.640625E+00  0.000000E+00
  7.812500E-01  7.031250E+00  0.000000E+00
  7.812500E-01  7.421875E+00  0.000000E+00
  7.812500E-01  7.812500E+00  0.000000E+00
  7.812500E-01  8.203125E+00  0.000000E+00
  7.812500E-01  8.593750E+00  0.000000E+00
  7.812500E-01  8.984375E+00  0.000000E+00
  7.812500E-01  9.375000E+00  0.000000E+00
  7.812500E-01  9.765625E+00  0.000000E+00
  7.812500E-01  1.015625E+01  0.000000E+00
  7.812500E-01  1.054688E+01  0.000000E+00
  7.812500E-01  1.093750E+01  0.000000E+00
  7.812500E-01  1.132812E+01  0.000000E+00
  7.812500E-01  1.171875E+01  0.000000E+00
  7.812500E-01  1.210938E+01  0.000000E+00
  7.812500E-01  1.250000E+01  0.000000E+00
  7.812500E-01  1.289062E+01  0.000000E+00
  7.812500E-01  1.328125E+01  0.000000E+00
  7.812500E-01  1.367188E+01  0.000000E+00
  7.812500E-01  1.406250E+01  0.000000E+00
  7.812500E-01  1.445312E+01  0.000000E+00
  7.812500E-01  1.484375E+01  0.000000E+00
  7.812500E-01  1.523438E+01  0.000000E+00
  7.812500E-01  1.562500E+01  0.000000E+00
  7.812500E-01  1.601562E+01  0.000000E+00
  7.812500E-01  1.640625E+01  0.000000E+00
  7.812500E-01  1.679688E+01  0.000000E+00
  7.812500E-01  1.718750E+01  0.000000E+00
  7.812500E-01  1.757812E+01  0.000000E+00
  7.812500E-01  1.796875E+01  0.000000E+00
  7.812500E-01  1.835938E+01  0.000000E+00
  7.812500E-01  1.875000E+01  0.000000E+00
  7.812500E-01  1.914062E+01  0.000000E+00
  7.812500E-01  1.953125E+01  0.000000E+00
  7.812500E-01  1.992188E+01  0.000000E+00
  7.812500E-01  2.031250E+01  0.000000E+00
  7.812500E-01  2.070312E+01  0.000000E+00
  7.812500E-01  2.109375E+01  0.000000E+00
  7.812500E-01  2.148438E+01  0.000000E+00
  7.812500E-01  2.187500E+01  0.000000E+00
  7.812500E-01  2.226562E+01  0.000000E+00
  7.812500E-01  2.265625E+01  0.000000E+00
  7.812500E-01  2.304688E+01  0.000000E+00
  7.812500E-01  2.343750E+01  0.000000E+00
  7.812500E-01  2.382812E+01  0.000000E+00
  7.812500E-01  2.421875E+01  0.000000E+00
  7.812500E-01  2.460938E+01  0.000000E+00
  1.171875E+00  0.000000E+00  0.000000E+00
  1.171875E+00  3.906250E-01  0.000000E+00
  1.171875E+00  7.812500E-01  0.000000E+00
  1.171875E+00  1.171875E+00  0.000000E+00
  1.171875E+00  1.562500E+00  0.000000E+00
  1.171875E+00  1.953125E+00  0.000000E+00
  1.171875E+00  2.343750E+00  0.000000E+00
  1.171875E+00  2.734375E+00  0.000000E+00
  1.171875E+00  3.125000E+00  0.000000E+00
  1.171875E+00  3.515625E+00  0.000000E+00
  1.171875E+00  3.906250E+00  0.000000E+00
  1.171875E+00  4.296875E+00  0.000000E+00
  1.171875E+00  4.687500E+00  0.000000E+00
  1.171875E+00  5.078125E+00  0.000000E+00
  1.171875E+00  5.468750E+00  0.000000E+00
  1.171875E+00  5.859375E+00  0.000000E+00
  1.171875E+00  6.250000E+00  0.000000E+00
  1.171875E+00  6.640625E+00  0.000000E+00
  1.171875E+00  7.031250E+00  0.000000E+00
  1.171875E+00  7.421875E+00  0.000000E+00
  1.171875E+00  7.812500E+00  0.000000E+00
  1.171875E+00  8.203125E+00  0.000000E+00
  1.171875E+00  8.593750E+00  0.000000E+00
  1.171875E+00  8.984375E+00  0.000000E+00
  1.171875E+00  9.375000E+00  0.000000E+00
  1.171875E+00  9.765625E+00  0.000000E+00
  1.171875E+00  1.015625E+01  0.000000E+00
  1.171875E+00  1.054688E+01  0.000000E+00
  1.171875E+00  1.093750E+01  0.000000E+00
  1.171875E+00  1.132812E+01  0.000000E+00
  1.171875E+00  1.171875E+01  0.000000E+00
  1.171875E+00  1.210938E+01  0.000000E+00
  1.171875E+00  1.250000E+01  0.000000E+00
  1.171875E+00  1.289062E+01  0.000000E+00
  1.171875E+00  1.328125E+01  0.000000E+00
  1.171875E+00  1.367188E+01  0.000000E+00
  1.171875E+00  1.406250E+01  0.000000E+00
  1.171875E+00  1.445312E+01  0.000000E+00
[...]
POINT_DATA   4096
SCALARS CON  float  1
LOOKUP_TABLE default
  4.714876E-01
  4.725533E-01
  4.794717E-01
  4.755794E-01
  4.759206E-01
  4.684183E-01
  4.706008E-01
  4.686706E-01
  4.754361E-01
  4.734181E-01
  4.756958E-01
  4.683174E-01
  4.682433E-01
  4.630004E-01
  4.679339E-01
  4.676532E-01
  4.748993E-01
  4.731465E-01
  4.761898E-01
  4.698444E-01
  4.701830E-01
  4.637028E-01
  4.651966E-01
  4.596823E-01
  4.616816E-01
  4.575557E-01
  4.630168E-01
  4.637312E-01
  4.726277E-01
  4.724120E-01
  4.760780E-01
  4.697515E-01
  4.707979E-01
  4.667850E-01
  4.722667E-01
  4.704971E-01
  4.739186E-01
  4.675017E-01
  4.674124E-01
  4.609224E-01
  4.633370E-01
  4.594375E-01
  4.626237E-01
  4.578635E-01
  4.604368E-01
  4.575031E-01
  4.650245E-01
  4.683261E-01
  4.794061E-01
  4.794724E-01
  4.805211E-01
  4.689808E-01
  4.643818E-01
  4.574498E-01
  4.652158E-01
  4.715189E-01
  4.858396E-01
  4.879184E-01
  4.902875E-01
  4.800015E-01
  4.757454E-01
  4.660247E-01
  4.669626E-01
  4.641686E-01
  4.719734E-01
  4.747569E-01
  4.831953E-01
  4.817362E-01
  4.811109E-01
  4.713171E-01
  4.686047E-01
  4.638403E-01
  4.690047E-01
  4.697438E-01
  4.754715E-01
  4.727168E-01
  4.738361E-01
  4.679903E-01
  4.687686E-01
  4.653647E-01
  4.701146E-01
  4.698990E-01
  4.747804E-01
  4.711082E-01
  4.711665E-01
  4.646346E-01
  4.654220E-01
  4.620917E-01
  4.658583E-01
  4.636506E-01
  4.672218E-01
  4.651711E-01
  4.700827E-01
  4.695693E-01
  4.745544E-01
  4.718890E-01
  4.735027E-01
  4.680179E-01
  4.685352E-01
  4.638470E-01
  4.663715E-01
  4.638522E-01
  4.675271E-01
  4.643055E-01
  4.655668E-01
  4.595567E-01
  4.593067E-01
  4.540016E-01
  4.564484E-01
  4.553869E-01
  4.632035E-01
  4.674703E-01
  4.778405E-01
  4.784597E-01
  4.790704E-01
  4.691030E-01
  4.658350E-01
  4.623801E-01
  4.722122E-01
  4.800014E-01
  4.916062E-01
  4.900118E-01
  4.875101E-01
  4.759860E-01
  4.719385E-01
  4.650245E-01
  4.669294E-01
  4.651926E-01
  4.638502E-01
  4.737718E-01
  4.837011E-01
  4.851778E-01
  4.814110E-01
  4.719515E-01
  4.660213E-01
  4.628258E-01
  4.661691E-01
  4.695636E-01
  4.741421E-01
  4.742247E-01
  4.738576E-01
  4.702986E-01
  4.691212E-01
  4.673856E-01
  4.691712E-01
  4.696980E-01
  4.718384E-01
  4.708357E-01
  4.707525E-01
  4.682203E-01
  4.677915E-01
  4.656083E-01
  4.655669E-01
  4.637917E-01
  4.646070E-01
  4.641947E-01
  4.660871E-01
  4.654213E-01
  4.656993E-01
  4.634363E-01
  4.638430E-01
  4.637951E-01
  4.669269E-01
  4.678620E-01
  4.692983E-01
  4.670339E-01
  4.658227E-01
  4.624465E-01
  4.610566E-01
  4.575126E-01
  4.559264E-01
  4.530902E-01
  4.540700E-01
  4.558454E-01
  4.624979E-01
  4.689352E-01
  4.766124E-01
  4.785103E-01
  4.771510E-01
  4.700731E-01
  4.654060E-01
  4.633495E-01
  4.695855E-01
  4.781167E-01
  4.879290E-01
  4.899111E-01
  4.863102E-01
  4.752947E-01
  4.651292E-01
  4.556121E-01
  4.531142E-01
  4.547201E-01
  4.636462E-01
  4.745301E-01
  4.812914E-01
  4.855557E-01
  4.787339E-01
  4.702109E-01
  4.591569E-01
  4.564515E-01
  4.568345E-01
  4.647210E-01
  4.702473E-01
  4.766011E-01
  4.756133E-01
  4.741960E-01
  4.680329E-01
  4.663600E-01
  4.646099E-01
  4.690345E-01
  4.710931E-01
  4.747279E-01
  4.724315E-01
  4.717375E-01
  4.681110E-01
  4.690598E-01
  4.675810E-01
  4.687772E-01
  4.655100E-01
  4.648854E-01
  4.619444E-01
  4.640729E-01
  4.644412E-01
  4.679001E-01
  4.664537E-01
  4.661943E-01
  4.618526E-01
  4.617642E-01
  4.608261E-01
  4.651486E-01
  4.664209E-01
  4.688351E-01
  4.650041E-01
  4.625463E-01
  4.574451E-01
  4.580001E-01
  4.581282E-01
  4.632739E-01
  4.658508E-01
  4.714422E-01
  4.726294E-01
  4.746054E-01
  4.702572E-01
  4.673884E-01
  4.627566E-01
  4.657748E-01
  4.704271E-01
  4.801005E-01
  4.835080E-01
  4.839611E-01
  4.756567E-01
  4.686801E-01
  4.599831E-01
  4.574449E-01
  4.548461E-01
  4.588738E-01
  4.594404E-01
  4.731464E-01
  4.772123E-01
  4.825006E-01
  4.728785E-01
  4.671534E-01
  4.553923E-01
  4.561182E-01
  4.547781E-01
  4.642937E-01
  4.666456E-01
  4.743342E-01
  4.710649E-01
  4.727652E-01
  4.661694E-01
  4.683496E-01
  4.651235E-01
  4.712179E-01
  4.702313E-01
  4.759096E-01
  4.722460E-01
  4.745469E-01
  4.682438E-01
  4.691971E-01
  4.627842E-01
  4.644581E-01
  4.593876E-01
  4.627488E-01
  4.593757E-01
  4.639478E-01
  4.609633E-01
  4.652142E-01
  4.616479E-01
  4.657203E-01
  4.626743E-01
  4.676084E-01
  4.650696E-01
  4.696479E-01
  4.657439E-01
  4.682015E-01
  4.621080E-01
  4.635548E-01
  4.588051E-01
  4.637779E-01
  4.631697E-01
  4.707377E-01
  4.698188E-01
  4.747539E-01
  4.703113E-01
  4.719642E-01
  4.649291E-01
  4.651425E-01
  4.589313E-01
  4.628498E-01
  4.624610E-01
  4.717039E-01
  4.728448E-01
  4.784056E-01
  4.720174E-01
  4.697836E-01
  4.586890E-01
  4.562916E-01
  4.498408E-01
  4.558590E-01
  4.646998E-01
  4.735381E-01
  4.734055E-01
  4.784275E-01
  4.691583E-01
  4.650583E-01
  4.527710E-01
  4.533330E-01
  4.507165E-01
  4.609072E-01
  4.636370E-01
  4.731958E-01
  4.700979E-01
  4.721922E-01
  4.641411E-01
  4.664000E-01
  4.633910E-01
  4.722269E-01
  4.729191E-01
  4.800671E-01
  4.745762E-01
  4.750519E-01
  4.661713E-01
  4.673008E-01
  4.612098E-01
  4.645155E-01
  4.590784E-01
  4.626803E-01
  4.590966E-01
  4.665277E-01
  4.667068E-01
  4.747516E-01
  4.707333E-01
  4.718650E-01
  4.627567E-01
  4.641839E-01
  4.606717E-01
  4.689204E-01
  4.684855E-01
  4.740091E-01
  4.674082E-01
  4.685559E-01
  4.631471E-01
  4.700979E-01
  4.704632E-01
  4.785849E-01
  4.744775E-01
  4.758756E-01
  4.669965E-01
  4.671425E-01
  4.594833E-01
  4.617071E-01
  4.569219E-01
  4.630644E-01
  4.622942E-01
  4.702590E-01
  4.673997E-01
  4.706380E-01
  4.637355E-01
  4.661627E-01
  4.612201E-01
  4.657521E-01
  4.615801E-01
  4.666103E-01
  4.633871E-01
  4.704771E-01
  4.702575E-01
  4.739584E-01
  4.672036E-01
  4.652453E-01
  4.572811E-01
  4.588894E-01
  4.570491E-01
  4.640665E-01
  4.645022E-01
  4.700820E-01
  4.665208E-01
  4.682839E-01
  4.636279E-01
  4.677128E-01
  4.673771E-01
  4.751378E-01
  4.755134E-01
  4.803924E-01
  4.753022E-01
  4.744277E-01
  4.654543E-01
  4.635388E-01
  4.564153E-01
  4.582551E-01
  4.556045E-01
  4.614047E-01
  4.614295E-01
  4.683913E-01
  4.679784E-01
  4.731128E-01
  4.699560E-01
  4.726951E-01
  4.687722E-01
  4.725318E-01
  4.701887E-01
  4.743173E-01
  4.702413E-01
  4.713350E-01
  4.650076E-01
  4.667130E-01
  4.644122E-01
  4.716324E-01
  4.729728E-01
  4.793309E-01
  4.752754E-01
  4.749330E-01
  4.666991E-01
  4.661314E-01
  4.603431E-01
  4.624451E-01
  4.583843E-01
  4.615611E-01
  4.587177E-01
  4.634115E-01
  4.618084E-01
  4.669504E-01
  4.648291E-01
  4.686515E-01
  4.646301E-01
  4.664961E-01
  4.615619E-01
  4.647291E-01
  4.671533E-01
  4.679504E-01
  4.678015E-01
  4.708004E-01
  4.690855E-01
  4.679464E-01
  4.629945E-01
  4.621710E-01
  4.611277E-01
  4.654054E-01
  4.675799E-01
  4.712886E-01
  4.694449E-01
  4.683726E-01
  4.644046E-01
  4.657971E-01
  4.679573E-01
  4.754959E-01
  4.794663E-01
  4.824877E-01
  4.775921E-01
  4.723337E-01
  4.640603E-01
  4.611145E-01
  4.584125E-01
  4.607515E-01
  4.610193E-01
  4.643594E-01
  4.654815E-01
  4.708006E-01
  4.740521E-01
  4.791233E-01
  4.781374E-01
  4.766764E-01
  4.710236E-01
  4.699715E-01
  4.692137E-01
  4.733668E-01
  4.737781E-01
  4.741970E-01
  4.693359E-01
  4.677331E-01
  4.662490E-01
  4.709887E-01
  4.738004E-01
  4.772735E-01
  4.741032E-01
  4.714137E-01
  4.659275E-01
  4.650312E-01
  4.628434E-01
  4.643267E-01
  4.633670E-01
  4.658157E-01
  4.655680E-01
  4.673699E-01
  4.647086E-01
  4.641010E-01
  4.617387E-01
  4.648622E-01
  4.671114E-01
  4.718870E-01
  4.712219E-01
  4.708916E-01
  4.615975E-01
  4.625255E-01
  4.653213E-01
  4.683251E-01
  4.707406E-01
  4.715150E-01
  4.714533E-01
  4.709631E-01
  4.712522E-01
  4.718574E-01
  4.724825E-01
  4.716757E-01
  4.696606E-01
  4.669897E-01
  4.659125E-01
  4.672688E-01
  4.713976E-01
  4.761852E-01
  4.797487E-01
  4.797832E-01
  4.764042E-01
  4.703877E-01
  4.642999E-01
  4.597027E-01
  4.583426E-01
  4.598535E-01
  4.636048E-01
  4.673876E-01
  4.702792E-01
  4.714048E-01
  4.717102E-01
  4.714857E-01
  4.718311E-01
  4.727209E-01
  4.747084E-01
  4.767231E-01
  4.779591E-01
  4.767161E-01
  4.732623E-01
  4.683400E-01
  4.644542E-01
  4.628130E-01
  4.642225E-01
  4.670641E-01
  4.698845E-01
  4.707334E-01
  4.699983E-01
  4.684501E-01
  4.679304E-01
  4.683236E-01
  4.693162E-01
  4.694224E-01
  4.688339E-01
  4.676161E-01
  4.669253E-01
  4.665263E-01
  4.667246E-01
  4.668845E-01
  4.674457E-01
  4.677769E-01
  4.678581E-01
  4.666694E-01
  4.647046E-01
  4.624201E-01
  4.619358E-01
  4.601420E-01
  4.631165E-01
  4.673035E-01
  4.725348E-01
  4.742392E-01
  4.745372E-01
  4.724637E-01
  4.723233E-01
  4.725054E-01
  4.746176E-01
  4.744735E-01
  4.732581E-01
  4.689975E-01
  4.662082E-01
  4.649085E-01
  4.685835E-01
  4.734993E-01
  4.788402E-01
  4.790201E-01
  4.756310E-01
  4.683506E-01
  4.631867E-01
  4.604951E-01
  4.631956E-01
  4.671743E-01
  4.721479E-01
  4.737403E-01
  4.743035E-01
  4.728391E-01
  4.731218E-01
  4.727925E-01
  4.733773E-01
  4.719105E-01
  4.714102E-01
  4.705502E-01
  4.720194E-01
  4.722849E-01
  4.722064E-01
  4.688787E-01
  4.659574E-01
  4.630601E-01
  4.637886E-01
  4.651200E-01
  4.676307E-01
  4.675251E-01
  4.675338E-01
  4.667667E-01
  4.686634E-01
  4.702050E-01
  4.722621E-01
  4.716541E-01
  4.716654E-01
  4.712927E-01
  4.731922E-01
  4.735483E-01
  4.732243E-01
  4.698942E-01
  4.678810E-01
  4.666456E-01
  4.685615E-01
  4.691923E-01
  4.688391E-01
  4.649190E-01
  4.561742E-01
  4.576813E-01
  4.613624E-01
  4.666387E-01
  4.714401E-01
  4.748295E-01
  4.757813E-01
  4.754441E-01
  4.745352E-01
  4.743075E-01
  4.739621E-01
  4.730226E-01
  4.704460E-01
  4.674417E-01
  4.651651E-01
  4.654968E-01
  4.680390E-01
  4.719626E-01
  4.747284E-01
  4.751501E-01
  4.723225E-01
  4.678536E-01
  4.633158E-01
  4.613204E-01
  4.626252E-01
  4.673637E-01
  4.729153E-01
  4.768454E-01
  4.766819E-01
  4.731834E-01
  4.680279E-01
  4.643569E-01
  4.633897E-01
  4.658031E-01
  4.698229E-01
  4.736954E-01
  4.747175E-01
  4.724849E-01
  4.675420E-01
  4.627473E-01
  4.597836E-01
  4.598574E-01
  4.615407E-01
  4.636543E-01
  4.645955E-01
  4.650568E-01
  4.656855E-01
  4.679000E-01
  4.708964E-01
  4.736608E-01
  4.741326E-01
  4.725652E-01
  4.698380E-01
  4.684078E-01
  4.688941E-01
  4.713944E-01
  4.739714E-01
  4.756832E-01
  4.753078E-01
  4.733621E-01
  4.697261E-01
  4.654589E-01
  4.608805E-01
  4.575904E-01
  4.592103E-01
  4.594683E-01
  4.608847E-01
  4.668652E-01
  4.703764E-01
  4.737061E-01
  4.717763E-01
  4.706156E-01
  4.678418E-01
  4.692323E-01
  4.696689E-01
  4.718782E-01
  4.697153E-01
  4.677398E-01
  4.631473E-01
  4.628317E-01
  4.636117E-01
  4.692845E-01
  4.727126E-01
  4.755759E-01
  4.721190E-01
  4.683376E-01
  4.627670E-01
  4.627340E-01
  4.645699E-01
  4.713189E-01
  4.754951E-01
  4.790158E-01
  4.765789E-01
  4.741999E-01
  4.694704E-01
  4.682075E-01
  4.657911E-01
  4.661790E-01
  4.646266E-01
  4.658650E-01
  4.653208E-01
  4.669376E-01
  4.654308E-01
  4.652483E-01
  4.626368E-01
  4.631901E-01
  4.627930E-01
  4.653825E-01
  4.654431E-01
  4.671906E-01
  4.667322E-01
  4.693865E-01
  4.703092E-01
  4.725808E-01
  4.703465E-01
  4.686494E-01
  4.651876E-01
  4.667299E-01
  4.690181E-01
  4.746055E-01
  4.762954E-01
  4.774865E-01
  4.745268E-01
  4.737002E-01
  4.711285E-01
  4.706313E-01
  4.666155E-01
  4.637737E-01
  4.574582E-01
  4.605927E-01
  4.617109E-01
  4.668220E-01
  4.682207E-01
  4.716884E-01
  4.699657E-01
  4.703299E-01
  4.671088E-01
  4.679348E-01
  4.659905E-01
  4.672923E-01
  4.644974E-01
  4.646956E-01
  4.621641E-01
  4.645462E-01
  4.651816E-01
  4.700883E-01
  4.713216E-01
  4.744739E-01
  4.719305E-01
  4.705411E-01
  4.646561E-01
  4.630424E-01
  4.608899E-01
  4.655831E-01
  4.689911E-01
  4.749862E-01
  4.741425E-01
  4.727306E-01
  4.658042E-01
  4.630559E-01
  4.598594E-01
  4.632636E-01
  4.650751E-01
  4.697341E-01
  4.686286E-01
  4.682667E-01
  4.632349E-01
  4.622770E-01
  4.599218E-01
  4.628216E-01
  4.631171E-01
  4.663946E-01
  4.655401E-01
  4.678492E-01
  4.672517E-01
  4.705431E-01
  4.700467E-01
  4.713606E-01
  4.672576E-01
  4.654224E-01
  4.609096E-01
  4.621319E-01
  4.629512E-01
  4.693531E-01
  4.728302E-01
  4.782277E-01
  4.773634E-01
  4.767738E-01
  4.704686E-01
  4.667920E-01
  4.605617E-01
  4.595946E-01
  4.645193E-01
  4.648875E-01
  4.640894E-01
  4.672604E-01
  4.679045E-01
  4.698559E-01
  4.672859E-01
  4.662975E-01
  4.631066E-01
  4.639951E-01
  4.635088E-01
  4.658090E-01
  4.645750E-01
  4.649648E-01
  4.626513E-01
  4.642534E-01
  4.653342E-01
  4.707844E-01
  4.737374E-01
  4.774482E-01
  4.752452E-01
  4.726823E-01
  4.662623E-01
  4.636748E-01
  4.612901E-01
  4.643901E-01
  4.662636E-01
  4.702194E-01
  4.697700E-01
  4.704181E-01
  4.679290E-01
  4.683701E-01
  4.663793E-01
  4.667334E-01
  4.640733E-01
  4.642677E-01
  4.627831E-01
  4.650176E-01
  4.650421E-01
  4.672764E-01
  4.661570E-01
  4.674137E-01
  4.664236E-01
  4.686210E-01
  4.682710E-01
  4.700966E-01
  4.686336E-01
  4.693069E-01
  4.668378E-01
  4.663135E-01
  4.625742E-01
  4.618386E-01
  4.602653E-01
  4.638884E-01
  4.667170E-01
  4.720068E-01
  4.725320E-01
  4.731166E-01
  4.696241E-01
  4.690626E-01
  4.670344E-01
  4.684561E-01
  4.670173E-01
  4.673468E-01
  4.663125E-01
  4.680584E-01
  4.673344E-01
  4.674096E-01
  4.669506E-01
  4.682781E-01
  4.684014E-01
  4.689165E-01
  4.674136E-01
  4.664864E-01
  4.642591E-01
  4.633762E-01
  4.620567E-01
  4.631422E-01
  4.646030E-01
  4.682354E-01
  4.708176E-01
  4.739234E-01
  4.751768E-01
  4.769032E-01
  4.762676E-01
  4.745713E-01
  4.691575E-01
  4.635521E-01
  4.579878E-01
  4.569075E-01
  4.583486E-01
  4.626944E-01
  4.649321E-01
  4.657414E-01
  4.634909E-01
  4.625917E-01
  4.625543E-01
  4.657490E-01
  4.683964E-01
  4.708496E-01
  4.698719E-01
  4.683196E-01
  4.654243E-01
  4.647683E-01
  4.644543E-01
  4.662697E-01
  4.671608E-01
  4.688427E-01
  4.688303E-01
  4.693656E-01
  4.681137E-01
  4.673259E-01
  4.649141E-01
  4.636760E-01
  4.620222E-01
  4.626771E-01
  4.632781E-01
  4.655103E-01
  4.664550E-01
  4.680230E-01
  4.678258E-01
  4.679959E-01
  4.660215E-01
  4.643026E-01
  4.614250E-01
  4.609538E-01
  4.613735E-01
  4.644182E-01
  4.759731E-01
  4.740970E-01
  4.709145E-01
  4.681219E-01
  4.670194E-01
  4.669025E-01
  4.672165E-01
  4.670113E-01
  4.665874E-01
  4.658120E-01
  4.651933E-01
  4.644902E-01
  4.642954E-01
  4.646499E-01
  4.661776E-01
  4.684455E-01
  4.713771E-01
  4.740889E-01
  4.764440E-01
  4.775645E-01
  4.771433E-01
  4.743384E-01
  4.697544E-01
  4.643076E-01
  4.600729E-01
  4.578770E-01
  4.580700E-01
  4.593730E-01
  4.611285E-01
  4.626787E-01
  4.646990E-01
  4.670135E-01
  4.693465E-01
  4.702404E-01
  4.694893E-01
  4.674539E-01
  4.660036E-01
  4.658383E-01
  4.670541E-01
  4.681727E-01
  4.687342E-01
  4.686360E-01
  4.690664E-01
  4.699929E-01
  4.709903E-01
  4.704485E-01
  4.681555E-01
  4.644937E-01
  4.613515E-01
  4.597775E-01
  4.607620E-01
  4.637493E-01
  4.680967E-01
  4.718346E-01
  4.735296E-01
  4.716987E-01
  4.669673E-01
  4.607658E-01
  4.559671E-01
  4.543346E-01
  4.569835E-01
  4.626707E-01
  4.694773E-01
  4.743741E-01
  4.778824E-01
  4.771897E-01
  4.734250E-01
  4.681376E-01
  4.655246E-01
  4.651664E-01
  4.674498E-01
  4.691387E-01
  4.701131E-01
  4.684875E-01
  4.661894E-01
  4.631345E-01
  4.622388E-01
  4.631329E-01
  4.669114E-01
  4.705364E-01
  4.734136E-01
  4.734172E-01
  4.729795E-01
  4.723166E-01
  4.731599E-01
  4.726693E-01
  4.704011E-01
  4.647984E-01
  4.593158E-01
  4.553363E-01
  4.555206E-01
  4.574544E-01
  4.601899E-01
  4.608245E-01
  4.612505E-01
  4.619410E-01
  4.655034E-01
  4.698317E-01
  4.740559E-01
  4.747149E-01
  4.728471E-01
  4.685367E-01
  4.652704E-01
  4.630817E-01
  4.636073E-01
  4.649192E-01
  4.675548E-01
  4.692339E-01
  4.704392E-01
  4.690954E-01
  4.665836E-01
  4.625014E-01
  4.599381E-01
  4.591512E-01
  4.621248E-01
  4.665219E-01
  4.714371E-01
  4.731001E-01
  4.719009E-01
  4.673674E-01
  4.628415E-01
  4.584844E-01
  4.562102E-01
  4.548017E-01
  4.561859E-01
  4.597556E-01
  4.666176E-01
  4.732483E-01
  4.837948E-01
  4.794601E-01
  4.742505E-01
  4.677461E-01
  4.651136E-01
  4.632182E-01
  4.644455E-01
  4.644045E-01
  4.656704E-01
  4.646692E-01
  4.648411E-01
  4.633410E-01
  4.640890E-01
  4.641817E-01
  4.666982E-01
  4.675210E-01
  4.691508E-01
  4.681538E-01
  4.685460E-01
  4.678390E-01
  4.694261E-01
  4.691524E-01
  4.692963E-01
  4.663376E-01
  4.645072E-01
  4.617209E-01
  4.618156E-01
  4.611658E-01
  4.625774E-01
  4.628677E-01
  4.659484E-01
  4.686442E-01
  4.731481E-01
  4.742433E-01
  4.740696E-01
  4.699515E-01
  4.672613E-01
  4.643916E-01
  4.648509E-01
  4.644146E-01
  4.656782E-01
  4.656066E-01
  4.681001E-01
  4.695414E-01
  4.716776E-01
  4.694945E-01
  4.661507E-01
  4.601425E-01
  4.574098E-01
  4.565040E-01
  4.608498E-01
  4.657361E-01
  4.721482E-01
  4.745114E-01
  4.748790E-01
  4.700935E-01
  4.649687E-01
  4.583777E-01
  4.557510E-01
  4.552676E-01
  4.605803E-01
  4.673853E-01
  4.765670E-01
  4.816910E-01
  4.783202E-01
  4.754081E-01
  4.730550E-01
  4.660840E-01
  4.643068E-01
  4.614122E-01
  4.641009E-01
  4.635591E-01
  4.658623E-01
  4.632335E-01
  4.634931E-01
  4.603805E-01
  4.623443E-01
  4.624621E-01
  4.671984E-01
  4.672768E-01
  4.684627E-01
  4.636197E-01
  4.623370E-01
  4.598050E-01
  4.640361E-01
  4.658962E-01
  4.698991E-01
  4.672486E-01
  4.664869E-01
  4.627086E-01
  4.647165E-01
  4.644739E-01
  4.675091E-01
  4.654892E-01
  4.666970E-01
  4.656033E-01
  4.703757E-01
  4.724115E-01
  4.767063E-01
  4.740931E-01
  4.721291E-01
  4.651936E-01
  4.627819E-01
  4.589461E-01
  4.613354E-01
  4.621028E-01
  4.674697E-01
  4.685700E-01
  4.712891E-01
  4.674778E-01
  4.651369E-01
  4.587384E-01
  4.577947E-01
  4.564165E-01
  4.617844E-01
  4.648924E-01
  4.706057E-01
  4.698040E-01
  4.700470E-01
  4.657849E-01
  4.663307E-01
  4.648140E-01
  4.675796E-01
  4.661454E-01
  4.680584E-01
  4.672867E-01
  4.720820E-01
  4.740968E-01
  4.763692E-01
  4.709272E-01
  4.711463E-01
  4.650430E-01
  4.659134E-01
  4.609561E-01
  4.627192E-01
  4.584034E-01
  4.609170E-01
  4.577649E-01
  4.617993E-01
  4.602419E-01
  4.655364E-01
  4.643176E-01
  4.684768E-01
  4.644716E-01
  4.651534E-01
  4.588326E-01
  4.599406E-01
  4.570142E-01
  4.627800E-01
  4.633227E-01
  4.697736E-01
  4.684092E-01
  4.722975E-01
  4.693660E-01
  4.727746E-01
  4.694642E-01
  4.721988E-01
  4.688314E-01
  4.731349E-01
  4.722762E-01
  4.775756E-01
  4.741371E-01
  4.740825E-01
  4.659380E-01
  4.650246E-01
  4.601336E-01
  4.637597E-01
  4.619036E-01
  4.665321E-01
  4.651413E-01
  4.708685E-01
  4.701717E-01
  4.740975E-01
  4.684279E-01
  4.665821E-01
  4.580883E-01
  4.581840E-01
  4.552725E-01
  4.613880E-01
  4.621981E-01
  4.689125E-01
  4.680157E-01
  4.724609E-01
  4.699707E-01
  4.737989E-01
  4.711870E-01
  4.748358E-01
  4.718423E-01
  4.753422E-01
  4.727741E-01
  4.768444E-01
  4.740076E-01
  4.667114E-01
  4.652056E-01
  4.696345E-01
  4.652475E-01
  4.673770E-01
  4.624717E-01
  4.652343E-01
  4.609494E-01
  4.637263E-01
  4.592309E-01
  4.623447E-01
  4.593010E-01
  4.648094E-01
  4.640174E-01
  4.700145E-01
  4.666242E-01
  4.675514E-01
  4.594514E-01
  4.593998E-01
  4.554188E-01
  4.622104E-01
  4.634328E-01
  4.707119E-01
  4.681972E-01
  4.713289E-01
  4.675769E-01
  4.723468E-01
  4.702332E-01
  4.741798E-01
  4.692169E-01
  4.710583E-01
  4.668594E-01
  4.715693E-01
  4.695594E-01
  4.736552E-01
  4.684507E-01
  4.689070E-01
  4.618964E-01
  4.632451E-01
  4.594450E-01
  4.650820E-01
  4.651925E-01
  4.729115E-01
  4.719905E-01
  4.755630E-01
  4.689458E-01
  4.680361E-01
  4.604110E-01
  4.620793E-01