# vtk DataFile Version 2.0
title
ASCII
DATASET STRUCTURED_GRID
DIMENSIONS   64   64    1
POINTS   4096  float
  0.000000E+00  0.000000E+00  0.000000E+00
  0.000000E+00  3.906250E-01  0.000000E+00
  0.000000E+00  7.812500E-01  0.000000E+00
  0.000000E+00  1.171875E+00  0.000000E+00
  0.000000E+00  1.562500E+00  0.000000E+00
  0.000000E+00  1.953125E+00  0.000000E+00
  0.000000E+00  2.343750E+00  0.000000E+00
  0.000000E+00  2.734375E+00  0.000000E+00
  0.000000E+00  3.125000E+00  0.000000E+00
  0.000000E+00  3.515625E+00  0.000000E+00
  0.000000E+00  3.906250E+00  0.000000E+00
  0.000000E+00  4.296875E+00  0.000000E+00
  0.000000E+00  4.687500E+00  0.000000E+00
  0.000000E+00  5.078125E+00  0.000000E+00
  0.000000E+00  5.468750E+00  0.000000E+00
  0.000000E+00  5.859375E+00  0.000000E+00
  0.000000E+00  6.250000E+00  0.000000E+00
  0.000000E+00  6.640625E+00  0.000000E+00
  0.000000E+00  7.031250E+00  0.000000E+00
  0.000000E+00  7.421875E+00  0.000000E+00
  0.000000E+00  7.812500E+00  0.000000E+00
  0.000000E+00  8.203125E+00  0.000000E+00
  0.000000E+00  8.593750E+00  0.000000E+00
  0.000000E+00  8.984375E+00  0.000000E+00
  0.000000E+00  9.375000E+00  0.000000E+00
  0.000000E+00  9.765625E+00  0.000000E+00
  0.000000E+00  1.015625E+01  0.000000E+00
  0.000000E+00  1.054688E+01  0.000000E+00
  0.000000E+00  1.093750E+01  0.000000E+00
  0.000000E+00  1.132812E+01  0.000000E+00
  0.000000E+00  1.171875E+01  0.000000E+00
  0.000000E+00  1.210938E+01  0.000000E+00
  0.000000E+00  1.250000E+01  0.000000E+00
  0.000000E+00  1.289062E+01  0.000000E+00
  0.000000E+00  1.328125E+01  0.000000E+00
  0.000000E+00  1.367188E+01  0.000000E+00
  0.000000E+00  1.406250E+01  0.000000E+00
  0.000000E+00  1.445312E+01  0.000000E+00
  0.000000E+00  1.484375E+01  0.000000E+00
  0.000000E+00  1.523438E+01  0.000000E+00
  0.000000E+00  1.562500E+01  0.000000E+00
  0.000000E+00  1.601562E+01  0.000000E+00
  0.000000E+00  1.640625E+01  0.000000E+00
  0.000000E+00  1.679688E+01  0.000000E+00
  0.000000E+00  1.718750E+01  0.000000E+00
  0.000000E+00  1.757812E+01  0.000000E+00
  0.000000E+00  1.796875E+01  0.000000E+00
  0.000000E+00  1.835938E+01  0.000000E+00
  0.000000E+00  1.875000E+01  0.000000E+00
  0.000000E+00  1.914062E+01  0.000000E+00
  0.000000E+00  1.953125E+01  0.000000E+00
  0.000000E+00  1.992188E+01  0.000000E+00
  0.000000E+00  2.031250E+01  0.000000E+00
  0.000000E+00  2.070312E+01  0.000000E+00
  0.000000E+00  2.109375E+01  0.000000E+00
  0.000000E+00  2.148438E+01  0.000000E+00
  0.000000E+00  2.187500E+01  0.000000E+00
  0.000000E+00  2.226562E+01  0.000000E+00
  0.000000E+00  2.265625E+01  0.000000E+00
  0.000000E+00  2.304688E+01  0.000000E+00
  0.000000E+00  2.343750E+01  0.000000E+00
  0.000000E+00  2.382812E+01  0.000000E+00
  0.000000E+00  2.421875E+01  0.000000E+00
  0.000000E+00  2.460938E+01  0.000000E+00
  3.906250E-01  0.000000E+00  0.000000E+00
  3.906250E-01  3.906250E-01  0.000000E+00
  3.906250E-01  7.812500E-01  0.000000E+00
  3.906250E-01  1.171875E+00  0.000000E+00
  3.906250E-01  1.562500E+00  0.000000E+00
  3.906250E-01  1.953125E+00  0.000000E+00
  3.906250E-01  2.343750E+00  0.000000E+00
  3.906250E-01  2.734375E+00  0.000000E+00
  3.906250E-01  3.125000E+00  0.000000E+00
  3.906250E-01  3.515625E+00  0.000000E+00
  3.906250E-01  3.906250E+00  0.000000E+00
  3.906250E-01  4.296875E+00  0.000000E+00
  3.906250E-01  4.687500E+00  0.000000E+00
  3.906250E-01  5.078125E+00  0.000000E+00
  3.906250E-01  5.468750E+00  0.000000E+00
  3.906250E-01  5.859375E+00  0.000000E+00
  3.906250E-01  6.250000E+00  0.000000E+00
  3.906250E-01  6.640625E+00  0.000000E+00
  3.906250E-01  7.031250E+00  0.000000E+00
  3.906250E-01  7.421875E+00  0.000000E+00
  3.906250E-01  7.812500E+00  0.000000E+00
  3.906250E-01  8.203125E+00  0.000000E+00
  3.906250E-01  8.593750E+00  0.000000E+00
  3.906250E-01  8.984375E+00  0.000000E+00
  3.906250E-01  9.375000E+00  0.000000E+00
  3.906250E-01  9.765625E+00  0.000000E+00
  3.906250E-01  1.015625E+01  0.000000E+00
  3.906250E-01  1.054688E+01  0.000000E+00
  3.906250E-01  1.093750E+01  0.000000E+00
  3.906250E-01  1.132812E+01  0.000000E+00
  3.906250E-01  1.171875E+01  0.000000E+00
  3.906250E-01  1.210938E+01  0.000000E+00
  3.906250E-01  1.250000E+01  0.000000E+00
  3.906250E-01  1.289062E+01  0.000000E+00
  3.906250E-01  1.328125E+01  0.000000E+00
  3.906250E-01  1.367188E+01  0.000000E+00
  3.906250E-01  1.406250E+01  0.000000E+00
  3.906250E-01  1.445312E+01  0.000000E+00
  3.906250E-01  1.484375E+01  0.000000E+00
  3.906250E-01  1.523438E+01  0.000000E+00
  3.906250E-01  1.562500E+01  0.000000E+00
  3.906250E-01  1.601562E+01  0.000000E+00
  3.906250E-01  1.640625E+01  0.000000E+00
  3.906250E-01  1.679688E+01  0.000000E+00
  3.906250E-01  1.718750E+01  0.000000E+00
  3.906250E-01  1.757812E+01  0.000000E+00
  3.906250E-01  1.796875E+01  0.000000E+00
  3.906250E-01  1.835938E+01  0.000000E+00
  3.906250E-01  1.875000E+01  0.000000E+00
  3.906250E-01  1.914062E+01  0.000000E+00
  3.906250E-01  1.953125E+01  0.000000E+00
  3.906250E-01  1.992188E+01  0.000000E+00
  3.906250E-01  2.031250E+01  0.000000E+00
  3.906250E-01  2.070312E+01  0.000000E+00
  3.906250E-01  2.109375E+01  0.000000E+00
  3.906250E-01  2.148438E+01  0.000000E+00
  3.906250E-01  2.187500E+01  0.000000E+00
  3.906250E-01  2.226562E+01  0.000000E+00
  3.906250E-01  2.265625E+01  0.000000E+00
  3.906250E-01  2.304688E+01  0.000000E+00
  3.906250E-01  2.343750E+01  0.000000E+00
  3.906250E-01  2.382812E+01  0.000000E+00
  3.906250E-01  2.421875E+01  0.000000E+00
  3.906250E-01  2.460938E+01  0.000000E+00
  7.812500E-01  0.000000E+00  0.000000E+00
  7.812500E-01  3.906250E-01  0.000000E+00
  7.812500E-01  7.812500E-01  0.000000E+00
  7.812500E-01  1.171875E+00  0.000000E+00
  7.812500E-01  1.562500E+00  0.000000E+00
  7.812500E-01  1.953125E+00  0.000000E+00
  7.812500E-01  2.343750E+00  0.000000E+00
  7.812500E-01  2.734375E+00  0.000000E+00
  7.812500E-01  3.125000E+00  0.000000E+00
  7.812500E-01  3.515625E+00  0.000000E+00
  7.812500E-01  3.906250E+00  0.000000E+00
  7.812500E-01  4.296875E+00  0.000000E+00
  7.812500E-01  4.687500E+00  0.000000E+00
  7.812500E-01  5.078125E+00  0.000000E+00
  7.812500E-01  5.468750E+00  0.000000E+00
  7.812500E-01  5.859375E+00  0.000000E+00
  7.812500E-01  6.250000E+00  0.000000E+00
  7.812500E-01  6.640625E+00  0.000000E+00
  7.812500E-01  7.031250E+00  0.000000E+00
  7.812500E-01  7.421875E+00  0.000000E+00
  7.812500E-01  7.812500E+00  0.000000E+00
  7.812500E-01  8.203125E+00  0.000000E+00
  7.812500E-01  8.593750E+00  0.000000E+00
  7.812500E-01  8.984375E+00  0.000000E+00
  7.812500E-01  9.375000E+00  0.000000E+00
  7.812500E-01  9.765625E+00  0.000000E+00
  7.812500E-01  1.015625E+01  0.000000E+00
  7.812500E-01  1.054688E+01  0.000000E+00
  7.812500E-01  1.093750E+01  0.000000E+00
  7.812500E-01  1.132812E+01  0.000000E+00
  7.812500E-01  1.171875E+01  0.000000E+00
  7.812500E-01  1.210938E+01  0.000000E+00
  7.812500E-01  1.250000E+01  0.000000E+00
  7.812500E-01  1.289062E+01  0.000000E+00
  7.812500E-01  1.328125E+01  0.000000E+00
  7.812500E-01  1.367188E+01  0.000000E+00
  7.812500E-01  1.406250E+01  0.000000E+00
  7.812500E-01  1.445312E+01  0.000000E+00
  7.812500E-01  1.484375E+01  0.000000E+00
  7.812500E-01  1.523438E+01  0.000000E+00
  7.812500E-01  1.562500E+01  0.000000E+00
  7.812500E-01  1.601562E+01  0.000000E+00
  7.812500E-01  1.640625E+01  0.000000E+00
  7.812500E-01  1.679688E+01  0.000000E+00
  7.812500E-01  1.718750E+01  0.000000E+00
  7.812500E-01  1.757812E+01  0.000000E+00
  7.812500E-01  1.796875E+01  0.000000E+00
  7.812500E-01  1.835938E+01  0.000000E+00
  7.812500E-01  1.875000E+01  0.000000E+00
  7.812500E-01  1.914062E+01  0.000000E+00
  7.812500E-01  1.953125E+01  0.000000E+00
  7.812500E-01  1.992188E+01  0.000000E+00
  7.812500E-01  2.031250E+01  0.000000E+00
  7.812500E-01  2.070312E+01  0.000000E+00
  7.812500E-01  2.109375E+01  0.000000E+00
  7.812500E-01  2.148438E+01  0.000000E+00
  7.812500E-01  2.187500E+01  0.000000E+00
  7.812500E-01  2.226562E+01  0.000000E+00
  7.812500E-01  2.265625E+01  0.000000E+00
  7.812500E-01  2.304688E+01  0.000000E+00
  7.812500E-01  2.343750E+01  0.000000E+00
  7.812500E-01  2.382812E+01  0.000000E+00
  7.812500E-01  2.421875E+01  0.000000E+00
  7.812500E-01  2.460938E+01  0.000000E+00
  1.171875E+00  0.000000E+00  0.000000E+00
  1.171875E+00  3.906250E-01  0.000000E+00
  1.171875E+00  7.812500E-01  0.000000E+00
  1.171875E+00  1.171875E+00  0.000000E+00
  1.171875E+00  1.562500E+00  0.000000E+00
  1.171875E+00  1.953125E+00  0.000000E+00
  1.171875E+00  2.343750E+00  0.000000E+00
  1.171875E+00  2.734375E+00  0.000000E+00
  1.171875E+00  3.125000E+00  0.000000E+00
  1.171875E+00  3.515625E+00  0.000000E+00
  1.171875E+00  3.906250E+00  0.000000E+00
  1.171875E+00  4.296875E+00  0.000000E+00
  1.171875E+00  4.687500E+00  0.000000E+00
  1.171875E+00  5.078125E+00  0.000000E+00
  1.171875E+00  5.468750E+00  0.000000E+00
  1.171875E+00  5.859375E+00  0.000000E+00
  1.171875E+00  6.250000E+00  0.000000E+00
  1.171875E+00  6.640625E+00  0.000000E+00
  1.171875E+00  7.031250E+00  0.000000E+00
  1.171875E+00  7.421875E+00  0.000000E+00
  1.171875E+00  7.812500E+00  0.000000E+00
  1.171875E+00  8.203125E+00  0.000000E+00
  1.171875E+00  8.593750E+00  0.000000E+00
  1.171875E+00  8.984375E+00  0.000000E+00
  1.171875E+00  9.375000E+00  0.000000E+00
  1.171875E+00  9.765625E+00  0.000000E+00
  1.171875E+00  1.015625E+01  0.000000E+00
  1.171875E+00  1.054688E+01  0.000000E+00
  1.171875E+00  1.093750E+01  0.000000E+00
  1.171875E+00  1.132812E+01  0.000000E+00
  1.171875E+00  1.171875E+01  0.000000E+00
  1.171875E+00  1.210938E+01  0.000000E+00
  1.171875E+00  1.250000E+01  0.000000E+00
  1.171875E+00  1.289062E+01  0.000000E+00
  1.171875E+00  1.328125E+01  0.000000E+00
  1.171875E+00  1.367188E+01  0.000000E+00
  1.171875E+00  1.406250E+01  0.000000E+00
  1.171875E+00  1.445312E+01  0.000000E+00
[...]
POINT_DATA   4096
SCALARS CON  float  1
LOOKUP_TABLE default
  4.711539E-01
  4.745574E-01
  4.844875E-01
  4.794429E-01
  4.794413E-01
  4.693029E-01
  4.717236E-01
  4.689983E-01
  4.778427E-01
  4.757693E-01
  4.792537E-01
  4.697580E-01
  4.690950E-01
  4.616241E-01
  4.675966E-01
  4.672938E-01
  4.768266E-01
  4.746433E-01
  4.785909E-01
  4.705276E-01
  4.711065E-01
  4.626336E-01
  4.640930E-01
  4.565697E-01
  4.592454E-01
  4.547019E-01
  4.626727E-01
  4.641141E-01
  4.754984E-01
  4.749081E-01
  4.796175E-01
  4.717263E-01
  4.731755E-01
  4.675699E-01
  4.739522E-01
  4.713625E-01
  4.760999E-01
  4.683541E-01
  4.682788E-01
  4.592063E-01
  4.612171E-01
  4.552864E-01
  4.589175E-01
  4.527621E-01
  4.563628E-01
  4.533092E-01
  4.640996E-01
  4.696045E-01
  4.847373E-01
  4.848154E-01
  4.855187E-01
  4.698195E-01
  4.632403E-01
  4.538531E-01
  4.637614E-01
  4.728301E-01
  4.934846E-01
  4.984900E-01
  5.022605E-01
  4.870857E-01
  4.780833E-01
  4.623715E-01
  4.622591E-01
  4.595774E-01
  4.725526E-01
  4.778596E-01
  4.891095E-01
  4.868696E-01
  4.855995E-01
  4.728678E-01
  4.691163E-01
  4.626919E-01
  4.692479E-01
  4.709671E-01
  4.793948E-01
  4.764225E-01
  4.772996E-01
  4.687673E-01
  4.689735E-01
  4.644805E-01
  4.704772E-01
  4.698266E-01
  4.754401E-01
  4.705502E-01
  4.710153E-01
  4.633422E-01
  4.645846E-01
  4.600951E-01
  4.645034E-01
  4.617267E-01
  4.667358E-01
  4.647908E-01
  4.716078E-01
  4.714520E-01
  4.782533E-01
  4.750736E-01
  4.767413E-01
  4.687566E-01
  4.682993E-01
  4.618313E-01
  4.653126E-01
  4.627279E-01
  4.676582E-01
  4.632251E-01
  4.641271E-01
  4.558050E-01
  4.549204E-01
  4.479167E-01
  4.512700E-01
  4.510049E-01
  4.625083E-01
  4.691805E-01
  4.824165E-01
  4.820294E-01
  4.814371E-01
  4.682284E-01
  4.644168E-01
  4.606264E-01
  4.736982E-01
  4.847730E-01
  5.016221E-01
  5.015790E-01
  4.986059E-01
  4.815909E-01
  4.727287E-01
  4.609361E-01
  4.624833E-01
  4.616424E-01
  4.630243E-01
  4.773089E-01
  4.903129E-01
  4.919161E-01
  4.860539E-01
  4.732971E-01
  4.648942E-01
  4.605697E-01
  4.647076E-01
  4.698539E-01
  4.764601E-01
  4.772723E-01
  4.764139E-01
  4.713686E-01
  4.691091E-01
  4.667194E-01
  4.684879E-01
  4.688542E-01
  4.710509E-01
  4.700641E-01
  4.704207E-01
  4.680830E-01
  4.676916E-01
  4.649125E-01
  4.643774E-01
  4.622551E-01
  4.635205E-01
  4.637901E-01
  4.666107E-01
  4.663119E-01
  4.666581E-01
  4.637751E-01
  4.634996E-01
  4.626183E-01
  4.655836E-01
  4.667682E-01
  4.689887E-01
  4.669650E-01
  4.653476E-01
  4.605340E-01
  4.576751E-01
  4.528688E-01
  4.508996E-01
  4.480702E-01
  4.497859E-01
  4.528125E-01
  4.617433E-01
  4.706137E-01
  4.801779E-01
  4.819342E-01
  4.788173E-01
  4.690308E-01
  4.626090E-01
  4.604562E-01
  4.692111E-01
  4.821469E-01
  4.969860E-01
  5.015246E-01
  4.966298E-01
  4.805069E-01
  4.643760E-01
  4.502863E-01
  4.464994E-01
  4.497953E-01
  4.635901E-01
  4.785917E-01
  4.866658E-01
  4.916350E-01
  4.818488E-01
  4.707163E-01
  4.556619E-01
  4.517148E-01
  4.514795E-01
  4.623544E-01
  4.703966E-01
  4.798781E-01
  4.782825E-01
  4.759186E-01
  4.668788E-01
  4.646782E-01
  4.620685E-01
  4.678995E-01
  4.701193E-01
  4.753493E-01
  4.728761E-01
  4.731624E-01
  4.685714E-01
  4.696821E-01
  4.666250E-01
  4.677540E-01
  4.631820E-01
  4.632221E-01
  4.600201E-01
  4.638072E-01
  4.643151E-01
  4.687861E-01
  4.658394E-01
  4.648403E-01
  4.583478E-01
  4.585317E-01
  4.575467E-01
  4.639246E-01
  4.654474E-01
  4.687414E-01
  4.634749E-01
  4.607296E-01
  4.539266E-01
  4.546984E-01
  4.543928E-01
  4.616987E-01
  4.657481E-01
  4.740787E-01
  4.749860E-01
  4.762897E-01
  4.687089E-01
  4.645959E-01
  4.587659E-01
  4.637724E-01
  4.702622E-01
  4.838922E-01
  4.891088E-01
  4.908617E-01
  4.796419E-01
  4.695130E-01
  4.562559E-01
  4.523427E-01
  4.492233E-01
  4.561964E-01
  4.580445E-01
  4.767211E-01
  4.816872E-01
  4.882173E-01
  4.746696E-01
  4.666474E-01
  4.503707E-01
  4.507895E-01
  4.484700E-01
  4.612654E-01
  4.649076E-01
  4.759168E-01
  4.716394E-01
  4.736988E-01
  4.643680E-01
  4.670755E-01
  4.626372E-01
  4.710412E-01
  4.700942E-01
  4.784240E-01
  4.740530E-01
  4.775645E-01
  4.690071E-01
  4.700198E-01
  4.609272E-01
  4.629554E-01
  4.561542E-01
  4.610564E-01
  4.568663E-01
  4.631996E-01
  4.589008E-01
  4.641584E-01
  4.588063E-01
  4.640860E-01
  4.601254E-01
  4.673204E-01
  4.643960E-01
  4.707900E-01
  4.652093E-01
  4.681721E-01
  4.599275E-01
  4.624383E-01
  4.565842E-01
  4.633376E-01
  4.618613E-01
  4.714614E-01
  4.701882E-01
  4.774636E-01
  4.718126E-01
  4.736973E-01
  4.631721E-01
  4.625470E-01
  4.537578E-01
  4.592086E-01
  4.591781E-01
  4.724024E-01
  4.746048E-01
  4.824324E-01
  4.733038E-01
  4.693841E-01
  4.537070E-01
  4.506574E-01
  4.429733E-01
  4.523701E-01
  4.644743E-01
  4.766529E-01
  4.760647E-01
  4.820821E-01
  4.694230E-01
  4.637964E-01
  4.471909E-01
  4.472445E-01
  4.433555E-01
  4.570648E-01
  4.616823E-01
  4.752532E-01
  4.712448E-01
  4.733359E-01
  4.619076E-01
  4.645305E-01
  4.607354E-01
  4.728985E-01
  4.744419E-01
  4.845093E-01
  4.776544E-01
  4.784265E-01
  4.664912E-01
  4.675124E-01
  4.588466E-01
  4.626689E-01
  4.553013E-01
  4.602334E-01
  4.558420E-01
  4.657424E-01
  4.656471E-01
  4.757471E-01
  4.702056E-01
  4.721159E-01
  4.610013E-01
  4.637384E-01
  4.593589E-01
  4.698428E-01
  4.686721E-01
  4.759307E-01
  4.679668E-01
  4.704607E-01
  4.635001E-01
  4.716749E-01
  4.706507E-01
  4.806762E-01
  4.759036E-01
  4.790058E-01
  4.677451E-01
  4.671781E-01
  4.558019E-01
  4.580446E-01
  4.519715E-01
  4.606483E-01
  4.599596E-01
  4.704249E-01
  4.664407E-01
  4.704081E-01
  4.606235E-01
  4.627728E-01
  4.553497E-01
  4.612990E-01
  4.570118E-01
  4.654939E-01
  4.624479E-01
  4.723156E-01
  4.723174E-01
  4.766575E-01
  4.672925E-01
  4.637577E-01
  4.527910E-01
  4.543294E-01
  4.522280E-01
  4.618773E-01
  4.635151E-01
  4.713389E-01
  4.668967E-01
  4.685116E-01
  4.617946E-01
  4.663769E-01
  4.660919E-01
  4.767981E-01
  4.785689E-01
  4.856462E-01
  4.791781E-01
  4.772892E-01
  4.650525E-01
  4.620984E-01
  4.530073E-01
  4.554154E-01
  4.522578E-01
  4.597404E-01
  4.598259E-01
  4.683360E-01
  4.672514E-01
  4.732441E-01
  4.693651E-01
  4.736866E-01
  4.700000E-01
  4.757248E-01
  4.729393E-01
  4.775345E-01
  4.714988E-01
  4.724244E-01
  4.647735E-01
  4.677615E-01
  4.654785E-01
  4.744197E-01
  4.752372E-01
  4.824424E-01
  4.772087E-01
  4.772842E-01
  4.672810E-01
  4.662778E-01
  4.581052E-01
  4.598505E-01
  4.543084E-01
  4.583807E-01
  4.551732E-01
  4.615009E-01
  4.597594E-01
  4.661665E-01
  4.628889E-01
  4.666975E-01
  4.607449E-01
  4.629060E-01
  4.574495E-01
  4.627773E-01
  4.677021E-01
  4.687685E-01
  4.686376E-01
  4.716103E-01
  4.692345E-01
  4.669922E-01
  4.605533E-01
  4.589178E-01
  4.581997E-01
  4.642830E-01
  4.686036E-01
  4.737313E-01
  4.714205E-01
  4.686693E-01
  4.627830E-01
  4.636253E-01
  4.669260E-01
  4.771435E-01
  4.836493E-01
  4.877932E-01
  4.816187E-01
  4.737612E-01
  4.627128E-01
  4.581636E-01
  4.549039E-01
  4.576314E-01
  4.585686E-01
  4.629612E-01
  4.651697E-01
  4.717439E-01
  4.758591E-01
  4.815009E-01
  4.804923E-01
  4.789257E-01
  4.730014E-01
  4.719390E-01
  4.711039E-01
  4.753125E-01
  4.755223E-01
  4.758367E-01
  4.707743E-01
  4.692278E-01
  4.677225E-01
  4.726737E-01
  4.757015E-01
  4.796910E-01
  4.766967E-01
  4.736382E-01
  4.666988E-01
  4.640382E-01
  4.603984E-01
  4.616891E-01
  4.613565E-01
  4.647205E-01
  4.646633E-01
  4.661175E-01
  4.627235E-01
  4.617715E-01
  4.593244E-01
  4.628101E-01
  4.654605E-01
  4.709124E-01
  4.708396E-01
  4.711524E-01
  4.607750E-01
  4.616218E-01
  4.657761E-01
  4.688014E-01
  4.719442E-01
  4.717953E-01
  4.719501E-01
  4.709195E-01
  4.724442E-01
  4.733428E-01
  4.751059E-01
  4.734314E-01
  4.709158E-01
  4.662122E-01
  4.646553E-01
  4.653438E-01
  4.712808E-01
  4.776866E-01
  4.839961E-01
  4.841418E-01
  4.800070E-01
  4.706439E-01
  4.624050E-01
  4.555843E-01
  4.546258E-01
  4.566176E-01
  4.628163E-01
  4.680141E-01
  4.729357E-01
  4.738174E-01
  4.740806E-01
  4.723388E-01
  4.729335E-01
  4.738658E-01
  4.777425E-01
  4.802955E-01
  4.823666E-01
  4.796609E-01
  4.752317E-01
  4.681068E-01
  4.637486E-01
  4.612669E-01
  4.637555E-01
  4.669263E-01
  4.713027E-01
  4.722451E-01
  4.723352E-01
  4.699309E-01
  4.693838E-01
  4.684787E-01
  4.695480E-01
  4.687855E-01
  4.685474E-01
  4.662835E-01
  4.656087E-01
  4.643737E-01
  4.656903E-01
  4.664849E-01
  4.689401E-01
  4.693281E-01
  4.697217E-01
  4.669991E-01
  4.645884E-01
  4.610560E-01
  4.610745E-01
  4.578981E-01
  4.619906E-01
  4.665306E-01
  4.740343E-01
  4.759441E-01
  4.773126E-01
  4.742375E-01
  4.749107E-01
  4.747148E-01
  4.781069E-01
  4.769028E-01
  4.752107E-01
  4.682091E-01
  4.646111E-01
  4.620989E-01
  4.677431E-01
  4.741146E-01
  4.823913E-01
  4.823287E-01
  4.783306E-01
  4.676322E-01
  4.609513E-01
  4.564355E-01
  4.604148E-01
  4.651923E-01
  4.730875E-01
  4.758188E-01
  4.784584E-01
  4.764734E-01
  4.770195E-01
  4.748662E-01
  4.752845E-01
  4.723869E-01
  4.725183E-01
  4.709623E-01
  4.734626E-01
  4.730395E-01
  4.736513E-01
  4.690137E-01
  4.660411E-01
  4.613154E-01
  4.620773E-01
  4.625580E-01
  4.667850E-01
  4.674091E-01
  4.695999E-01
  4.684388E-01
  4.704690E-01
  4.700769E-01
  4.723388E-01
  4.712491E-01
  4.728860E-01
  4.721440E-01
  4.745458E-01
  4.734380E-01
  4.737142E-01
  4.701713E-01
  4.700631E-01
  4.689190E-01
  4.718632E-01
  4.711152E-01
  4.704619E-01
  4.644085E-01
  4.526146E-01
  4.538516E-01
  4.593784E-01
  4.658732E-01
  4.731042E-01
  4.773388E-01
  4.797730E-01
  4.792476E-01
  4.789177E-01
  4.775950E-01
  4.768088E-01
  4.738490E-01
  4.703758E-01
  4.655882E-01
  4.632792E-01
  4.631541E-01
  4.672472E-01
  4.721668E-01
  4.770231E-01
  4.772957E-01
  4.740227E-01
  4.669673E-01
  4.611783E-01
  4.578392E-01
  4.604346E-01
  4.666262E-01
  4.755292E-01
  4.812849E-01
  4.826839E-01
  4.776062E-01
  4.706599E-01
  4.638999E-01
  4.621208E-01
  4.641110E-01
  4.700188E-01
  4.747508E-01
  4.770863E-01
  4.739209E-01
  4.684074E-01
  4.614903E-01
  4.576451E-01
  4.561072E-01
  4.581020E-01
  4.602318E-01
  4.630484E-01
  4.644127E-01
  4.668089E-01
  4.690168E-01
  4.726725E-01
  4.747053E-01
  4.756771E-01
  4.734425E-01
  4.710503E-01
  4.685586E-01
  4.693276E-01
  4.716782E-01
  4.762959E-01
  4.793764E-01
  4.810285E-01
  4.785080E-01
  4.739349E-01
  4.665911E-01
  4.600458E-01
  4.542751E-01
  4.556573E-01
  4.553063E-01
  4.575244E-01
  4.650253E-01
  4.709280E-01
  4.759516E-01
  4.750796E-01
  4.736743E-01
  4.705334E-01
  4.711935E-01
  4.712621E-01
  4.725317E-01
  4.694034E-01
  4.659574E-01
  4.605911E-01
  4.600129E-01
  4.619425E-01
  4.691467E-01
  4.743071E-01
  4.774575E-01
  4.732170E-01
  4.675289E-01
  4.607246E-01
  4.602554E-01
  4.633307E-01
  4.719398E-01
  4.785661E-01
  4.835695E-01
  4.816735E-01
  4.781118E-01
  4.716524E-01
  4.681872E-01
  4.644148E-01
  4.638898E-01
  4.625134E-01
  4.640559E-01
  4.643459E-01
  4.663946E-01
  4.653949E-01
  4.648990E-01
  4.617550E-01
  4.610587E-01
  4.598956E-01
  4.621193E-01
  4.632148E-01
  4.663851E-01
  4.676063E-01
  4.707192E-01
  4.713873E-01
  4.725787E-01
  4.699838E-01
  4.683842E-01
  4.659306E-01
  4.681814E-01
  4.713134E-01
  4.773206E-01
  4.798567E-01
  4.814866E-01
  4.788438E-01
  4.772514E-01
  4.735848E-01
  4.712865E-01
  4.657565E-01
  4.612049E-01
  4.530962E-01
  4.569177E-01
  4.588250E-01
  4.654830E-01
  4.680066E-01
  4.729000E-01
  4.718410E-01
  4.729089E-01
  4.693021E-01
  4.695056E-01
  4.659661E-01
  4.660993E-01
  4.620872E-01
  4.621206E-01
  4.595154E-01
  4.627463E-01
  4.642379E-01
  4.708010E-01
  4.730760E-01
  4.768857E-01
  4.733069E-01
  4.705422E-01
  4.629231E-01
  4.609534E-01
  4.592398E-01
  4.658901E-01
  4.712159E-01
  4.790352E-01
  4.780398E-01
  4.751981E-01
  4.653248E-01
  4.603372E-01
  4.557793E-01
  4.599238E-01
  4.631467E-01
  4.697603E-01
  4.693173E-01
  4.689787E-01
  4.627505E-01
  4.608898E-01
  4.574776E-01
  4.603481E-01
  4.607967E-01
  4.651670E-01
  4.650912E-01
  4.684226E-01
  4.679528E-01
  4.714433E-01
  4.704717E-01
  4.717553E-01
  4.671904E-01
  4.653515E-01
  4.604175E-01
  4.619691E-01
  4.632730E-01
  4.713209E-01
  4.762482E-01
  4.830297E-01
  4.818244E-01
  4.800417E-01
  4.712928E-01
  4.656199E-01
  4.574413E-01
  4.556995E-01
  4.630427E-01
  4.635223E-01
  4.619502E-01
  4.659515E-01
  4.667547E-01
  4.700449E-01
  4.674067E-01
  4.670224E-01
  4.630006E-01
  4.640435E-01
  4.625916E-01
  4.649861E-01
  4.626579E-01
  4.630658E-01
  4.599891E-01
  4.626269E-01
  4.645419E-01
  4.725227E-01
  4.766421E-01
  4.814462E-01
  4.776503E-01
  4.736340E-01
  4.647729E-01
  4.618403E-01
  4.591744E-01
  4.638200E-01
  4.662281E-01
  4.713600E-01
  4.702481E-01
  4.707250E-01
  4.666744E-01
  4.667629E-01
  4.637009E-01
  4.645763E-01
  4.617605E-01
  4.630818E-01
  4.615397E-01
  4.646098E-01
  4.641888E-01
  4.670266E-01
  4.654526E-01
  4.674478E-01
  4.662025E-01
  4.693812E-01
  4.690016E-01
  4.718382E-01
  4.699021E-01
  4.706103E-01
  4.665331E-01
  4.654298E-01
  4.605042E-01
  4.604863E-01
  4.592232E-01
  4.645582E-01
  4.678839E-01
  4.743276E-01
  4.741941E-01
  4.745110E-01
  4.692079E-01
  4.680748E-01
  4.649706E-01
  4.670840E-01
  4.655295E-01
  4.666349E-01
  4.664101E-01
  4.692563E-01
  4.676221E-01
  4.679037E-01
  4.661146E-01
  4.679752E-01
  4.676915E-01
  4.695570E-01
  4.675608E-01
  4.668854E-01
  4.628625E-01
  4.617417E-01
  4.592785E-01
  4.613531E-01
  4.627625E-01
  4.681462E-01
  4.713641E-01
  4.769352E-01
  4.789935E-01
  4.820752E-01
  4.797930E-01
  4.767545E-01
  4.682245E-01
  4.616696E-01
  4.547406E-01
  4.546634E-01
  4.560624E-01
  4.617544E-01
  4.633427E-01
  4.643633E-01
  4.605002E-01
  4.597438E-01
  4.592086E-01
  4.643998E-01
  4.681362E-01
  4.728681E-01
  4.715530E-01
  4.698917E-01
  4.647250E-01
  4.635683E-01
  4.622732E-01
  4.657613E-01
  4.675411E-01
  4.714848E-01
  4.713798E-01
  4.722535E-01
  4.691349E-01
  4.679194E-01
  4.640001E-01
  4.632247E-01
  4.607829E-01
  4.621179E-01
  4.618760E-01
  4.648826E-01
  4.653479E-01
  4.680122E-01
  4.671334E-01
  4.675744E-01
  4.639420E-01
  4.620926E-01
  4.581621E-01
  4.588802E-01
  4.595508E-01
  4.644381E-01
  4.797594E-01
  4.779750E-01
  4.727492E-01
  4.692064E-01
  4.664029E-01
  4.665158E-01
  4.661306E-01
  4.667267E-01
  4.656417E-01
  4.654420E-01
  4.640537E-01
  4.640618E-01
  4.632866E-01
  4.643665E-01
  4.652591E-01
  4.685584E-01
  4.718195E-01
  4.768644E-01
  4.801947E-01
  4.827577E-01
  4.809314E-01
  4.768885E-01
  4.693808E-01
  4.629031E-01
  4.570478E-01
  4.550552E-01
  4.542408E-01
  4.560052E-01
  4.572491E-01
  4.602056E-01
  4.626825E-01
  4.668063E-01
  4.692506E-01
  4.712373E-01
  4.699698E-01
  4.686125E-01
  4.662452E-01
  4.662756E-01
  4.662646E-01
  4.678198E-01
  4.680448E-01
  4.695178E-01
  4.703163E-01
  4.726465E-01
  4.730423E-01
  4.726171E-01
  4.686113E-01
  4.643951E-01
  4.594172E-01
  4.577847E-01
  4.581006E-01
  4.625817E-01
  4.675251E-01
  4.730029E-01
  4.741796E-01
  4.720041E-01
  4.646141E-01
  4.569110E-01
  4.499716E-01
  4.489483E-01
  4.524356E-01
  4.614379E-01
  4.704329E-01
  4.781176E-01
  4.820808E-01
  4.818780E-01
  4.769530E-01
  4.702197E-01
  4.656532E-01
  4.645264E-01
  4.665620E-01
  4.690722E-01
  4.701710E-01
  4.684532E-01
  4.651925E-01
  4.619987E-01
  4.612416E-01
  4.632258E-01
  4.674823E-01
  4.716152E-01
  4.743486E-01
  4.750010E-01
  4.751264E-01
  4.754075E-01
  4.759802E-01
  4.747666E-01
  4.707364E-01
  4.638677E-01
  4.569939E-01
  4.524595E-01
  4.519135E-01
  4.539342E-01
  4.567143E-01
  4.582688E-01
  4.593687E-01
  4.613066E-01
  4.657499E-01
  4.715781E-01
  4.767686E-01
  4.782889E-01
  4.756896E-01
  4.700015E-01
  4.644391E-01
  4.610045E-01
  4.611171E-01
  4.638419E-01
  4.680486E-01
  4.713262E-01
  4.723902E-01
  4.700878E-01
  4.655627E-01
  4.603062E-01
  4.570200E-01
  4.569147E-01
  4.606377E-01
  4.663443E-01
  4.718065E-01
  4.739558E-01
  4.720924E-01
  4.667337E-01
  4.605059E-01
  4.549399E-01
  4.514783E-01
  4.502577E-01
  4.524292E-01
  4.581815E-01
  4.672027E-01
  4.762757E-01
  4.893132E-01
  4.838404E-01
  4.774806E-01
  4.686233E-01
  4.649750E-01
  4.618075E-01
  4.632894E-01
  4.628207E-01
  4.645783E-01
  4.631276E-01
  4.640565E-01
  4.628070E-01
  4.649731E-01
  4.652607E-01
  4.682141E-01
  4.678694E-01
  4.691725E-01
  4.673888E-01
  4.685670E-01
  4.679684E-01
  4.703888E-01
  4.695998E-01
  4.699273E-01
  4.661328E-01
  4.642727E-01
  4.601657E-01
  4.595901E-01
  4.575765E-01
  4.595188E-01
  4.606635E-01
  4.663392E-01
  4.705605E-01
  4.766547E-01
  4.773212E-01
  4.769208E-01
  4.712540E-01
  4.678524E-01
  4.633775E-01
  4.634838E-01
  4.623801E-01
  4.646676E-01
  4.651919E-01
  4.691636E-01
  4.705014E-01
  4.726164E-01
  4.687771E-01
  4.644718E-01
  4.567116E-01
  4.536271E-01
  4.522431E-01
  4.581119E-01
  4.645923E-01
  4.738738E-01
  4.774139E-01
  4.783248E-01
  4.714140E-01
  4.640825E-01
  4.544064E-01
  4.507041E-01
  4.498595E-01
  4.573575E-01
  4.664827E-01
  4.790986E-01
  4.859302E-01
  4.816884E-01
  4.779496E-01
  4.759975E-01
  4.663841E-01
  4.640186E-01
  4.589518E-01
  4.626139E-01
  4.614733E-01
  4.652541E-01
  4.613791E-01
  4.624014E-01
  4.583952E-01
  4.624857E-01
  4.628336E-01
  4.693469E-01
  4.677539E-01
  4.686015E-01
  4.612646E-01
  4.604597E-01
  4.570797E-01
  4.631321E-01
  4.647304E-01
  4.705744E-01
  4.673052E-01
  4.677212E-01
  4.623925E-01
  4.647218E-01
  4.627212E-01
  4.667626E-01
  4.642175E-01
  4.675094E-01
  4.663643E-01
  4.732056E-01
  4.749239E-01
  4.807853E-01
  4.767514E-01
  4.745671E-01
  4.644187E-01
  4.610524E-01
  4.550838E-01
  4.590055E-01
  4.603505E-01
  4.688010E-01
  4.699463E-01
  4.734161E-01
  4.667617E-01
  4.633257E-01
  4.542118E-01
  4.539130E-01
  4.522359E-01
  4.602905E-01
  4.641543E-01
  4.725194E-01
  4.714495E-01
  4.728511E-01
  4.668733E-01
  4.675555E-01
  4.638749E-01
  4.668468E-01
  4.638387E-01
  4.669860E-01
  4.658897E-01
  4.730282E-01
  4.752924E-01
  4.792345E-01
  4.720596E-01
  4.725783E-01
  4.638509E-01
  4.648558E-01
  4.578504E-01
  4.606096E-01
  4.549761E-01
  4.588839E-01
  4.546750E-01
  4.605554E-01
  4.586372E-01
  4.663499E-01
  4.646087E-01
  4.700628E-01
  4.638024E-01
  4.643870E-01
  4.555373E-01
  4.573040E-01
  4.530977E-01
  4.606864E-01
  4.609240E-01
  4.700596E-01
  4.688154E-01
  4.749640E-01
  4.706767E-01
  4.744814E-01
  4.687469E-01
  4.723976E-01
  4.684324E-01
  4.755026E-01
  4.746913E-01
  4.819479E-01
  4.768680E-01
  4.770624E-01
  4.660230E-01
  4.647094E-01
  4.571098E-01
  4.614373E-01
  4.588425E-01
  4.663464E-01
  4.656320E-01
  4.742250E-01
  4.726466E-01
  4.771160E-01
  4.684513E-01
  4.659590E-01
  4.544264E-01
  4.546716E-01
  4.502926E-01
  4.586591E-01
  4.601124E-01
  4.704028E-01
  4.699554E-01
  4.765027E-01
  4.724653E-01
  4.767338E-01
  4.716611E-01
  4.756095E-01
  4.706986E-01
  4.755380E-01
  4.722725E-01
  4.785917E-01
  4.752461E-01
  4.667789E-01
  4.650412E-01
  4.706796E-01
  4.645763E-01
  4.665408E-01
  4.596779E-01
  4.632527E-01
  4.583844E-01
  4.626236E-01
  4.571176E-01
  4.609258E-01
  4.568155E-01
  4.639265E-01
  4.631032E-01
  4.707934E-01
  4.661576E-01
  4.670975E-01
  4.567887E-01
  4.569525E-01
  4.518161E-01
  4.600464E-01
  4.612027E-01
  4.708222E-01
  4.686710E-01
  4.738546E-01
  4.694132E-01
  4.749609E-01
  4.713325E-01
  4.759306E-01
  4.697241E-01
  4.724487E-01
  4.671926E-01
  4.732119E-01
  4.707898E-01
  4.764553E-01
  4.699548E-01
  4.700255E-01
  4.599133E-01
  4.606302E-01
  4.556634E-01
  4.638835E-01
  4.656748E-01
  4.770503E-01
  4.764258E-01
  4.805253E-01
  4.708110E-01
  4.683549E-01
  4.577118E-01
  4.595619E-01