# vtk DataFile Version 2.0
title
ASCII
DATASET STRUCTURED_GRID
DIMENSIONS   64   64    1
POINTS   4096  float
  0.000000E+00  0.000000E+00  0.000000E+00
  0.000000E+00  3.906250E-01  0.000000E+00
  0.000000E+00  7.812500E-01  0.000000E+00
  0.000000E+00  1.171875E+00  0.000000E+00
  0.000000E+00  1.562500E+00  0.000000E+00
  0.000000E+00  1.953125E+00  0.000000E+00
  0.000000E+00  2.343750E+00  0.000000E+00
  0.000000E+00  2.734375E+00  0.000000E+00
  0.000000E+00  3.125000E+00  0.000000E+00
  0.000000E+00  3.515625E+00  0.000000E+00
  0.000000E+00  3.906250E+00  0.000000E+00
  0.000000E+00  4.296875E+00  0.000000E+00
  0.000000E+00  4.687500E+00  0.000000E+00
  0.000000E+00  5.078125E+00  0.000000E+00
  0.000000E+00  5.468750E+00  0.000000E+00
  0.000000E+00  5.859375E+00  0.000000E+00
  0.000000E+00  6.250000E+00  0.000000E+00
  0.000000E+00  6.640625E+00  0.000000E+00
  0.000000E+00  7.031250E+00  0.000000E+00
  0.000000E+00  7.421875E+00  0.000000E+00
  0.000000E+00  7.812500E+00  0.000000E+00
  0.000000E+00  8.203125E+00  0.000000E+00
  0.000000E+00  8.593750E+00  0.000000E+00
  0.000000E+00  8.984375E+00  0.000000E+00
  0.000000E+00  9.375000E+00  0.000000E+00
  0.000000E+00  9.765625E+00  0.000000E+00
  0.000000E+00  1.015625E+01  0.000000E+00
  0.000000E+00  1.054688E+01  0.000000E+00
  0.000000E+00  1.093750E+01  0.000000E+00
  0.000000E+00  1.132812E+01  0.000000E+00
  0.000000E+00  1.171875E+01  0.000000E+00
  0.000000E+00  1.210938E+01  0.000000E+00
  0.000000E+00  1.250000E+01  0.000000E+00
  0.000000E+00  1.289062E+01  0.000000E+00
  0.000000E+00  1.328125E+01  0.000000E+00
  0.000000E+00  1.367188E+01  0.000000E+00
  0.000000E+00  1.406250E+01  0.000000E+00
  0.000000E+00  1.445312E+01  0.000000E+00
  0.000000E+00  1.484375E+01  0.000000E+00
  0.000000E+00  1.523438E+01  0.000000E+00
  0.000000E+00  1.562500E+01  0.000000E+00
  0.000000E+00  1.601562E+01  0.000000E+00
  0.000000E+00  1.640625E+01  0.000000E+00
  0.000000E+00  1.679688E+01  0.000000E+00
  0.000000E+00  1.718750E+01  0.000000E+00
  0.000000E+00  1.757812E+01  0.000000E+00
  0.000000E+00  1.796875E+01  0.000000E+00
  0.000000E+00  1.835938E+01  0.000000E+00
  0.000000E+00  1.875000E+01  0.000000E+00
  0.000000E+00  1.914062E+01  0.000000E+00
  0.000000E+00  1.953125E+01  0.000000E+00
  0.000000E+00  1.992188E+01  0.000000E+00
  0.000000E+00  2.031250E+01  0.000000E+00
  0.000000E+00  2.070312E+01  0.000000E+00
  0.000000E+00  2.109375E+01  0.000000E+00
  0.000000E+00  2.148438E+01  0.000000E+00
  0.000000E+00  2.187500E+01  0.000000E+00
  0.000000E+00  2.226562E+01  0.000000E+00
  0.000000E+00  2.265625E+01  0.000000E+00
  0.000000E+00  2.304688E+01  0.000000E+00
  0.000000E+00  2.343750E+01  0.000000E+00
  0.000000E+00  2.382812E+01  0.000000E+00
  0.000000E+00  2.421875E+01  0.000000E+00
  0.000000E+00  2.460938E+01  0.000000E+00
  3.906250E-01  0.000000E+00  0.000000E+00
  3.906250E-01  3.906250E-01  0.000000E+00
  3.906250E-01  7.812500E-01  0.000000E+00
  3.906250E-01  1.171875E+00  0.000000E+00
  3.906250E-01  1.562500E+00  0.000000E+00
  3.906250E-01  1.953125E+00  0.000000E+00
  3.906250E-01  2.343750E+00  0.000000E+00
  3.906250E-01  2.734375E+00  0.000000E+00
  3.906250E-01  3.125000E+00  0.000000E+00
  3.906250E-01  3.515625E+00  0.000000E+00
  3.906250E-01  3.906250E+00  0.000000E+00
  3.906250E-01  4.296875E+00  0.000000E+00
  3.906250E-01  4.687500E+00  0.000000E+00
  3.906250E-01  5.078125E+00  0.000000E+00
  3.906250E-01  5.468750E+00  0.000000E+00
  3.906250E-01  5.859375E+00  0.000000E+00
  3.906250E-01  6.250000E+00  0.000000E+00
  3.906250E-01  6.640625E+00  0.000000E+00
  3.906250E-01  7.031250E+00  0.000000E+00
  3.906250E-01  7.421875E+00  0.000000E+00
  3.906250E-01  7.812500E+00  0.000000E+00
  3.906250E-01  8.203125E+00  0.000000E+00
  3.906250E-01  8.593750E+00  0.000000E+00
  3.906250E-01  8.984375E+00  0.000000E+00
  3.906250E-01  9.375000E+00  0.000000E+00
  3.906250E-01  9.765625E+00  0.000000E+00
  3.906250E-01  1.015625E+01  0.000000E+00
  3.906250E-01  1.054688E+01  0.000000E+00
  3.906250E-01  1.093750E+01  0.000000E+00
  3.906250E-01  1.132812E+01  0.000000E+00
  3.906250E-01  1.171875E+01  0.000000E+00
  3.906250E-01  1.210938E+01  0.000000E+00
  3.906250E-01  1.250000E+01  0.000000E+00
  3.906250E-01  1.289062E+01  0.000000E+00
  3.906250E-01  1.328125E+01  0.000000E+00
  3.906250E-01  1.367188E+01  0.000000E+00
  3.906250E-01  1.406250E+01  0.000000E+00
  3.906250E-01  1.445312E+01  0.000000E+00
  3.906250E-01  1.484375E+01  0.000000E+00
  3.906250E-01  1.523438E+01  0.000000E+00
  3.906250E-01  1.562500E+01  0.000000E+00
  3.906250E-01  1.601562E+01  0.000000E+00
  3.906250E-01  1.640625E+01  0.000000E+00
  3.906250E-01  1.679688E+01  0.000000E+00
  3.906250E-01  1.718750E+01  0.000000E+00
  3.906250E-01  1.757812E+01  0.000000E+00
  3.906250E-01  1.796875E+01  0.000000E+00
  3.906250E-01  1.835938E+01  0.000000E+00
  3.906250E-01  1.875000E+01  0.000000E+00
  3.906250E-01  1.914062E+01  0.000000E+00
  3.906250E-01  1.953125E+01  0.000000E+00
  3.906250E-01  1.992188E+01  0.000000E+00
  3.906250E-01  2.031250E+01  0.000000E+00
  3.906250E-01  2.070312E+01  0.000000E+00
  3.906250E-01  2.109375E+01  0.000000E+00
  3.906250E-01  2.148438E+01  0.000000E+00
  3.906250E-01  2.187500E+01  0.000000E+00
  3.906250E-01  2.226562E+01  0.000000E+00
  3.906250E-01  2.265625E+01  0.000000E+00
  3.906250E-01  2.304688E+01  0.000000E+00
  3.906250E-01  2.343750E+01  0.000000E+00
  3.906250E-01  2.382812E+01  0.000000E+00
  3.906250E-01  2.421875E+01  0.000000E+00
  3.906250E-01  2.460938E+01  0.000000E+00
  7.812500E-01  0.000000E+00  0.000000E+00
  7.812500E-01  3.906250E-01  0.000000E+00
  7.812500E-01  7.812500E-01  0.000000E+00
  7.812500E-01  1.171875E+00  0.000000E+00
  7.812500E-01  1.562500E+00  0.000000E+00
  7.812500E-01  1.953125E+00  0.000000E+00
  7.812500E-01  2.343750E+00  0.000000E+00
  7.812500E-01  2.734375E+00  0.000000E+00
  7.812500E-01  3.125000E+00  0.000000E+00
  7.812500E-01  3.515625E+00  0.000000E+00
  7.812500E-01  3.906250E+00  0.000000E+00
  7.812500E-01  4.296875E+00  0.000000E+00
  7.812500E-01  4.687500E+00  0.000000E+00
  7.812500E-01  5.078125E+00  0.000000E+00
  7.812500E-01  5.468750E+00  0.000000E+00
  7.812500E-01  5.859375E+00  0.000000E+00
  7.812500E-01  6.250000E+00  0.000000E+00
  7.812500E-01  6.640625E+00  0.000000E+00
  7.812500E-01  7.031250E+00  0.000000E+00
  7.812500E-01  7.421875E+00  0.000000E+00
  7.812500E-01  7.812500E+00  0.000000E+00
  7.812500E-01  8.203125E+00  0.000000E+00
  7.812500E-01  8.593750E+00  0.000000E+00
  7.812500E-01  8.984375E+00  0.000000E+00
  7.812500E-01  9.375000E+00  0.000000E+00
  7.812500E-01  9.765625E+00  0.000000E+00
  7.812500E-01  1.015625E+01  0.000000E+00
  7.812500E-01  1.054688E+01  0.000000E+00
  7.812500E-01  1.093750E+01  0.000000E+00
  7.812500E-01  1.132812E+01  0.000000E+00
  7.812500E-01  1.171875E+01  0.000000E+00
  7.812500E-01  1.210938E+01  0.000000E+00
  7.812500E-01  1.250000E+01  0.000000E+00
  7.812500E-01  1.289062E+01  0.000000E+00
  7.812500E-01  1.328125E+01  0.000000E+00
  7.812500E-01  1.367188E+01  0.000000E+00
  7.812500E-01  1.406250E+01  0.000000E+00
  7.812500E-01  1.445312E+01  0.000000E+00
  7.812500E-01  1.484375E+01  0.000000E+00
  7.812500E-01  1.523438E+01  0.000000E+00
  7.812500E-01  1.562500E+01  0.000000E+00
  7.812500E-01  1.601562E+01  0.000000E+00
  7.812500E-01  1.640625E+01  0.000000E+00
  7.812500E-01  1.679688E+01  0.000000E+00
  7.812500E-01  1.718750E+01  0.000000E+00
  7.812500E-01  1.757812E+01  0.000000E+00
  7.812500E-01  1.796875E+01  0.000000E+00
  7.812500E-01  1.835938E+01  0.000000E+00
  7.812500E-01  1.875000E+01  0.000000E+00
  7.812500E-01  1.914062E+01  0.000000E+00
  7.812500E-01  1.953125E+01  0.000000E+00
  7.812500E-01  1.992188E+01  0.000000E+00
  7.812500E-01  2.031250E+01  0.000000E+00
  7.812500E-01  2.070312E+01  0.000000E+00
  7.812500E-01  2.109375E+01  0.000000E+00
  7.812500E-01  2.148438E+01  0.000000E+00
  7.812500E-01  2.187500E+01  0.000000E+00
  7.812500E-01  2.226562E+01  0.000000E+00
  7.812500E-01  2.265625E+01  0.000000E+00
  7.812500E-01  2.304688E+01  0.000000E+00
  7.812500E-01  2.343750E+01  0.000000E+00
  7.812500E-01  2.382812E+01  0.000000E+00
  7.812500E-01  2.421875E+01  0.000000E+00
  7.812500E-01  2.460938E+01  0.000000E+00
  1.171875E+00  0.000000E+00  0.000000E+00
  1.171875E+00  3.906250E-01  0.000000E+00
  1.171875E+00  7.812500E-01  0.000000E+00
  1.171875E+00  1.171875E+00  0.000000E+00
  1.171875E+00  1.562500E+00  0.000000E+00
  1.171875E+00  1.953125E+00  0.000000E+00
  1.171875E+00  2.343750E+00  0.000000E+00
  1.171875E+00  2.734375E+00  0.000000E+00
  1.171875E+00  3.125000E+00  0.000000E+00
  1.171875E+00  3.515625E+00  0.000000E+00
  1.171875E+00  3.906250E+00  0.000000E+00
  1.171875E+00  4.296875E+00  0.000000E+00
  1.171875E+00  4.687500E+00  0.000000E+00
  1.171875E+00  5.078125E+00  0.000000E+00
  1.171875E+00  5.468750E+00  0.000000E+00
  1.171875E+00  5.859375E+00  0.000000E+00
  1.171875E+00  6.250000E+00  0.000000E+00
  1.171875E+00  6.640625E+00  0.000000E+00
  1.171875E+00  7.031250E+00  0.000000E+00
  1.171875E+00  7.421875E+00  0.000000E+00
  1.171875E+00  7.812500E+00  0.000000E+00
  1.171875E+00  8.203125E+00  0.000000E+00
  1.171875E+00  8.593750E+00  0.000000E+00
  1.171875E+00  8.984375E+00  0.000000E+00
  1.171875E+00  9.375000E+00  0.000000E+00
  1.171875E+00  9.765625E+00  0.000000E+00
  1.171875E+00  1.015625E+01  0.000000E+00
  1.171875E+00  1.054688E+01  0.000000E+00
  1.171875E+00  1.093750E+01  0.000000E+00
  1.171875E+00  1.132812E+01  0.000000E+00
  1.171875E+00  1.171875E+01  0.000000E+00
  1.171875E+00  1.210938E+01  0.000000E+00
  1.171875E+00  1.250000E+01  0.000000E+00
  1.171875E+00  1.289062E+01  0.000000E+00
  1.171875E+00  1.328125E+01  0.000000E+00
  1.171875E+00  1.367188E+01  0.000000E+00
  1.171875E+00  1.406250E+01  0.000000E+00
  1.171875E+00  1.445312E+01  0.000000E+00
[...]
POINT_DATA   4096
SCALARS CON  float  1
LOOKUP_TABLE default
  4.713490E-01
  4.740008E-01
  4.829038E-01
  4.781681E-01
  4.782739E-01
  4.690131E-01
  4.713857E-01
  4.689153E-01
  4.770974E-01
  4.750569E-01
  4.781679E-01
  4.693256E-01
  4.688064E-01
  4.620259E-01
  4.677030E-01
  4.674688E-01
  4.763016E-01
  4.742216E-01
  4.778220E-01
  4.702798E-01
  4.708024E-01
  4.629936E-01
  4.644617E-01
  4.575444E-01
  4.599810E-01
  4.555842E-01
  4.627927E-01
  4.640164E-01
  4.745766E-01
  4.740576E-01
  4.784207E-01
  4.710676E-01
  4.724420E-01
  4.673656E-01
  4.734471E-01
  4.711046E-01
  4.754356E-01
  4.681355E-01
  4.680540E-01
  4.597738E-01
  4.618879E-01
  4.566085E-01
  4.601226E-01
  4.544227E-01
  4.576893E-01
  4.546607E-01
  4.644062E-01
  4.692006E-01
  4.830182E-01
  4.830709E-01
  4.838895E-01
  4.695538E-01
  4.636502E-01
  4.550668E-01
  4.642807E-01
  4.724184E-01
  4.909943E-01
  4.950415E-01
  4.983861E-01
  4.848026E-01
  4.773121E-01
  4.634868E-01
  4.637218E-01
  4.610669E-01
  4.724476E-01
  4.769235E-01
  4.871897E-01
  4.851415E-01
  4.841036E-01
  4.723801E-01
  4.689962E-01
  4.630811E-01
  4.691684E-01
  4.705899E-01
  4.781914E-01
  4.752862E-01
  4.761866E-01
  4.684621E-01
  4.688669E-01
  4.647919E-01
  4.704436E-01
  4.699112E-01
  4.752244E-01
  4.706800E-01
  4.710294E-01
  4.637584E-01
  4.648693E-01
  4.607297E-01
  4.649169E-01
  4.623355E-01
  4.669168E-01
  4.649434E-01
  4.711174E-01
  4.708035E-01
  4.770200E-01
  4.740460E-01
  4.757382E-01
  4.685475E-01
  4.683623E-01
  4.624396E-01
  4.656410E-01
  4.631209E-01
  4.676644E-01
  4.635902E-01
  4.645773E-01
  4.569935E-01
  4.563341E-01
  4.498812E-01
  4.529385E-01
  4.524112E-01
  4.627402E-01
  4.686333E-01
  4.809191E-01
  4.808232E-01
  4.806312E-01
  4.685235E-01
  4.649576E-01
  4.612982E-01
  4.732939E-01
  4.832275E-01
  4.983194E-01
  4.977666E-01
  4.949958E-01
  4.797908E-01
  4.724695E-01
  4.622035E-01
  4.638709E-01
  4.628027E-01
  4.633368E-01
  4.761842E-01
  4.881389E-01
  4.896704E-01
  4.845221E-01
  4.728757E-01
  4.652840E-01
  4.612942E-01
  4.651645E-01
  4.697640E-01
  4.757485E-01
  4.763127E-01
  4.755671E-01
  4.709566E-01
  4.690600E-01
  4.669298E-01
  4.687505E-01
  4.691618E-01
  4.713070E-01
  4.702849E-01
  4.705125E-01
  4.681377E-01
  4.677526E-01
  4.651478E-01
  4.647490E-01
  4.627234E-01
  4.638571E-01
  4.639161E-01
  4.664364E-01
  4.659992E-01
  4.663226E-01
  4.636542E-01
  4.636191E-01
  4.629885E-01
  4.659705E-01
  4.670480E-01
  4.690448E-01
  4.669933E-01
  4.655372E-01
  4.611588E-01
  4.587306E-01
  4.543053E-01
  4.524755E-01
  4.496635E-01
  4.511582E-01
  4.537813E-01
  4.619836E-01
  4.700644E-01
  4.790125E-01
  4.808024E-01
  4.782692E-01
  4.693923E-01
  4.635833E-01
  4.614740E-01
  4.693868E-01
  4.808223E-01
  4.939740E-01
  4.976797E-01
  4.932671E-01
  4.788520E-01
  4.646552E-01
  4.520012E-01
  4.486198E-01
  4.513982E-01
  4.636528E-01
  4.772788E-01
  4.848711E-01
  4.896047E-01
  4.808364E-01
  4.705996E-01
  4.568196E-01
  4.532013E-01
  4.531191E-01
  4.630564E-01
  4.703537E-01
  4.788518E-01
  4.774132E-01
  4.752934E-01
  4.671711E-01
  4.651874E-01
  4.629156E-01
  4.683155E-01
  4.704688E-01
  4.751628E-01
  4.727470E-01
  4.727249E-01
  4.684433E-01
  4.694795E-01
  4.669086E-01
  4.680476E-01
  4.639027E-01
  4.637376E-01
  4.606263E-01
  4.638807E-01
  4.643536E-01
  4.685075E-01
  4.660388E-01
  4.652410E-01
  4.593996E-01
  4.594856E-01
  4.585569E-01
  4.643245E-01
  4.657826E-01
  4.687588E-01
  4.639184E-01
  4.612612E-01
  4.550295E-01
  4.557405E-01
  4.555640E-01
  4.621682E-01
  4.657707E-01
  4.732551E-01
  4.742679E-01
  4.757685E-01
  4.692124E-01
  4.655088E-01
  4.600940E-01
  4.644687E-01
  4.703308E-01
  4.826160E-01
  4.872064E-01
  4.885595E-01
  4.783534E-01
  4.692973E-01
  4.575143E-01
  4.540162E-01
  4.510571E-01
  4.571000E-01
  4.584810E-01
  4.755294E-01
  4.801854E-01
  4.863548E-01
  4.741307E-01
  4.668816E-01
  4.520132E-01
  4.524718E-01
  4.504294E-01
  4.621982E-01
  4.654595E-01
  4.754163E-01
  4.714359E-01
  4.733592E-01
  4.649056E-01
  4.674786E-01
  4.634624E-01
  4.711555E-01
  4.701979E-01
  4.776702E-01
  4.735040E-01
  4.766116E-01
  4.687601E-01
  4.697456E-01
  4.614938E-01
  4.633962E-01
  4.571401E-01
  4.615661E-01
  4.576606E-01
  4.634551E-01
  4.595801E-01
  4.645124E-01
  4.597170E-01
  4.645987E-01
  4.609148E-01
  4.673917E-01
  4.646113E-01
  4.704530E-01
  4.654045E-01
  4.681749E-01
  4.605844E-01
  4.627587E-01
  4.572788E-01
  4.634733E-01
  4.622486E-01
  4.711780E-01
  4.700351E-01
  4.766237E-01
  4.714115E-01
  4.732321E-01
  4.637853E-01
  4.633908E-01
  4.554048E-01
  4.603706E-01
  4.602185E-01
  4.721535E-01
  4.740010E-01
  4.811228E-01
  4.729127E-01
  4.695682E-01
  4.553516E-01
  4.524930E-01
  4.451846E-01
  4.534997E-01
  4.645131E-01
  4.756052E-01
  4.751477E-01
  4.809002E-01
  4.693916E-01
  4.643004E-01
  4.490290E-01
  4.491822E-01
  4.456467E-01
  4.582617E-01
  4.623149E-01
  4.746342E-01
  4.708886E-01
  4.729588E-01
  4.625965E-01
  4.651389E-01
  4.616201E-01
  4.727479E-01
  4.740050E-01
  4.831247E-01
  4.766672E-01
  4.773258E-01
  4.663474E-01
  4.674205E-01
  4.595864E-01
  4.632629E-01
  4.565007E-01
  4.610157E-01
  4.568833E-01
  4.660221E-01
  4.660178E-01
  4.754695E-01
  4.703966E-01
  4.720570E-01
  4.615717E-01
  4.639085E-01
  4.598114E-01
  4.695896E-01
  4.686168E-01
  4.752917E-01
  4.677479E-01
  4.698567E-01
  4.634235E-01
  4.712061E-01
  4.705549E-01
  4.799292E-01
  4.753821E-01
  4.780273E-01
  4.675835E-01
  4.672502E-01
  4.569991E-01
  4.591985E-01
  4.535188E-01
  4.614133E-01
  4.607056E-01
  4.703901E-01
  4.667715E-01
  4.705396E-01
  4.616841E-01
  4.639203E-01
  4.572432E-01
  4.627167E-01
  4.584462E-01
  4.658376E-01
  4.626871E-01
  4.716699E-01
  4.716112E-01
  4.758050E-01
  4.673162E-01
  4.643058E-01
  4.542586E-01
  4.557949E-01
  4.537619E-01
  4.625974E-01
  4.638529E-01
  4.709592E-01
  4.667765E-01
  4.684466E-01
  4.623880E-01
  4.668265E-01
  4.665167E-01
  4.762912E-01
  4.776053E-01
  4.839728E-01
  4.779049E-01
  4.763196E-01
  4.651183E-01
  4.625388E-01
  4.541065E-01
  4.563564E-01
  4.533393E-01
  4.602813E-01
  4.603438E-01
  4.683813E-01
  4.675051E-01
  4.732255E-01
  4.695693E-01
  4.734098E-01
  4.696554E-01
  4.747621E-01
  4.720933E-01
  4.765219E-01
  4.710740E-01
  4.720409E-01
  4.648117E-01
  4.674380E-01
  4.651816E-01
  4.735796E-01
  4.745005E-01
  4.813823E-01
  4.765093E-01
  4.765112E-01
  4.671207E-01
  4.662732E-01
  4.588155E-01
  4.606468E-01
  4.555688E-01
  4.593976E-01
  4.563371E-01
  4.621808E-01
  4.604922E-01
  4.665126E-01
  4.635870E-01
  4.673772E-01
  4.619864E-01
  4.640259E-01
  4.587120E-01
  4.633556E-01
  4.675051E-01
  4.684829E-01
  4.683438E-01
  4.713485E-01
  4.692125E-01
  4.673370E-01
  4.613495E-01
  4.599455E-01
  4.591123E-01
  4.646413E-01
  4.682961E-01
  4.729749E-01
  4.707949E-01
  4.685691E-01
  4.632926E-01
  4.643214E-01
  4.672609E-01
  4.766240E-01
  4.823096E-01
  4.860830E-01
  4.802901E-01
  4.732413E-01
  4.630757E-01
  4.590754E-01
  4.560414E-01
  4.586770E-01
  4.593895E-01
  4.634229E-01
  4.652665E-01
  4.714438E-01
  4.752841E-01
  4.807456E-01
  4.797450E-01
  4.782276E-01
  4.723997E-01
  4.713412E-01
  4.705082E-01
  4.746709E-01
  4.749122E-01
  4.752496E-01
  4.702700E-01
  4.687591E-01
  4.673040E-01
  4.721913E-01
  4.751008E-01
  4.788796E-01
  4.758206E-01
  4.729108E-01
  4.664485E-01
  4.643345E-01
  4.611298E-01
  4.624928E-01
  4.619993E-01
  4.651121E-01
  4.649992E-01
  4.665583E-01
  4.633996E-01
  4.625815E-01
  4.601702E-01
  4.635220E-01
  4.659960E-01
  4.711969E-01
  4.709233E-01
  4.710438E-01
  4.610280E-01
  4.619039E-01
  4.656329E-01
  4.686670E-01
  4.715802E-01
  4.717100E-01
  4.717698E-01
  4.709050E-01
  4.720482E-01
  4.728691E-01
  4.742633E-01
  4.728520E-01
  4.704924E-01
  4.664551E-01
  4.650664E-01
  4.659680E-01
  4.713162E-01
  4.772045E-01
  4.826475E-01
  4.827668E-01
  4.788578E-01
  4.705370E-01
  4.629718E-01
  4.568790E-01
  4.558191E-01
  4.576634E-01
  4.630584E-01
  4.677838E-01
  4.720567E-01
  4.730318E-01
  4.733123E-01
  4.720518E-01
  4.725722E-01
  4.735146E-01
  4.768027E-01
  4.791719E-01
  4.809423E-01
  4.786812E-01
  4.745599E-01
  4.681491E-01
  4.639511E-01
  4.617507E-01
  4.639104E-01
  4.669910E-01
  4.708725E-01
  4.717813E-01
  4.716038E-01
  4.694716E-01
  4.689188E-01
  4.684072E-01
  4.694434E-01
  4.689844E-01
  4.686741E-01
  4.667623E-01
  4.660566E-01
  4.650482E-01
  4.659904E-01
  4.666040E-01
  4.684846E-01
  4.688651E-01
  4.691410E-01
  4.668877E-01
  4.646100E-01
  4.614797E-01
  4.613544E-01
  4.586310E-01
  4.623588E-01
  4.668047E-01
  4.735806E-01
  4.754251E-01
  4.764105E-01
  4.736317E-01
  4.740205E-01
  4.739655E-01
  4.769586E-01
  4.761188E-01
  4.745771E-01
  4.684685E-01
  4.651278E-01
  4.630183E-01
  4.680252E-01
  4.739427E-01
  4.812800E-01
  4.813185E-01
  4.775062E-01
  4.678926E-01
  4.616645E-01
  4.577318E-01
  4.612951E-01
  4.658180E-01
  4.727444E-01
  4.751011E-01
  4.770733E-01
  4.752925E-01
  4.757670E-01
  4.742147E-01
  4.746813E-01
  4.722603E-01
  4.721834E-01
  4.708454E-01
  4.729835E-01
  4.727817E-01
  4.731748E-01
  4.689829E-01
  4.660222E-01
  4.618817E-01
  4.626118E-01
  4.633708E-01
  4.670547E-01
  4.674869E-01
  4.690012E-01
  4.679780E-01
  4.699184E-01
  4.701067E-01
  4.722843E-01
  4.714012E-01
  4.725577E-01
  4.719374E-01
  4.740983E-01
  4.733895E-01
  4.734418E-01
  4.700189E-01
  4.693498E-01
  4.682122E-01
  4.708066E-01
  4.704915E-01
  4.699234E-01
  4.645749E-01
  4.537142E-01
  4.550714E-01
  4.600182E-01
  4.661758E-01
  4.726205E-01
  4.765823E-01
  4.784827E-01
  4.780099E-01
  4.774673E-01
  4.765170E-01
  4.758526E-01
  4.735677E-01
  4.703877E-01
  4.662260E-01
  4.639271E-01
  4.639572E-01
  4.675079E-01
  4.721133E-01
  4.762909E-01
  4.766574E-01
  4.735258E-01
  4.673203E-01
  4.619036E-01
  4.590018E-01
  4.611423E-01
  4.668475E-01
  4.746134E-01
  4.797902E-01
  4.806964E-01
  4.761890E-01
  4.698214E-01
  4.640744E-01
  4.625428E-01
  4.647075E-01
  4.700001E-01
  4.744545E-01
  4.763150E-01
  4.734620E-01
  4.681429E-01
  4.619600E-01
  4.583753E-01
  4.573305E-01
  4.591590E-01
  4.612887E-01
  4.635131E-01
  4.646546E-01
  4.664973E-01
  4.687251E-01
  4.721196E-01
  4.743772E-01
  4.751694E-01
  4.731984E-01
  4.707032E-01
  4.685532E-01
  4.691539E-01
  4.715164E-01
  4.754479E-01
  4.781404E-01
  4.791599E-01
  4.768568E-01
  4.725534E-01
  4.662025E-01
  4.602642E-01
  4.553101E-01
  4.567612E-01
  4.566293E-01
  4.585946E-01
  4.656550E-01
  4.707994E-01
  4.752916E-01
  4.740295E-01
  4.726739E-01
  4.696074E-01
  4.705202E-01
  4.707173E-01
  4.723377E-01
  4.695303E-01
  4.665865E-01
  4.614539E-01
  4.609626E-01
  4.624831E-01
  4.691851E-01
  4.737627E-01
  4.768513E-01
  4.728773E-01
  4.678448E-01
  4.614338E-01
  4.611185E-01
  4.637642E-01
  4.717592E-01
  4.775449E-01
  4.820690E-01
  4.799967E-01
  4.768619E-01
  4.709643E-01
  4.682285E-01
  4.648808E-01
  4.646749E-01
  4.632278E-01
  4.646671E-01
  4.646423E-01
  4.665573E-01
  4.654019E-01
  4.650581E-01
  4.620848E-01
  4.617852E-01
  4.608102E-01
  4.631317E-01
  4.638746E-01
  4.666293E-01
  4.673270E-01
  4.703159E-01
  4.710264E-01
  4.725521E-01
  4.700589E-01
  4.684774E-01
  4.657147E-01
  4.677470E-01
  4.705566E-01
  4.764202E-01
  4.786813E-01
  4.802167E-01
  4.774651E-01
  4.761090E-01
  4.727422E-01
  4.710216E-01
  4.659702E-01
  4.619987E-01
  4.544728E-01
  4.580771E-01
  4.597593E-01
  4.659447E-01
  4.681156E-01
  4.725244E-01
  4.712267E-01
  4.720529E-01
  4.685794E-01
  4.689860E-01
  4.659644E-01
  4.664776E-01
  4.628844E-01
  4.629955E-01
  4.604250E-01
  4.633568E-01
  4.645380E-01
  4.705349E-01
  4.724709E-01
  4.760780E-01
  4.728593E-01
  4.705592E-01
  4.635244E-01
  4.616787E-01
  4.598205E-01
  4.658104E-01
  4.704912E-01
  4.777082E-01
  4.767783E-01
  4.744094E-01
  4.654866E-01
  4.612057E-01
  4.570952E-01
  4.610247E-01
  4.638145E-01
  4.697768E-01
  4.690799E-01
  4.687010E-01
  4.628709E-01
  4.613299E-01
  4.582846E-01
  4.611591E-01
  4.615435E-01
  4.655420E-01
  4.652115E-01
  4.682066E-01
  4.676935E-01
  4.711093E-01
  4.702923E-01
  4.715900E-01
  4.671925E-01
  4.653645E-01
  4.605726E-01
  4.620136E-01
  4.631760E-01
  4.707214E-01
  4.752190E-01
  4.815563E-01
  4.804273E-01
  4.789698E-01
  4.709754E-01
  4.659407E-01
  4.584092E-01
  4.569229E-01
  4.635591E-01
  4.639719E-01
  4.626626E-01
  4.663757E-01
  4.671387E-01
  4.699618E-01
  4.673478E-01
  4.667422E-01
  4.630129E-01
  4.640021E-01
  4.628994E-01
  4.652600E-01
  4.633091E-01
  4.636874E-01
  4.608651E-01
  4.631418E-01
  4.648032E-01
  4.719478E-01
  4.757096E-01
  4.801412E-01
  4.768786E-01
  4.733102E-01
  4.652545E-01
  4.624185E-01
  4.598707E-01
  4.640046E-01
  4.662563E-01
  4.709834E-01
  4.701027E-01
  4.706178E-01
  4.670892E-01
  4.672692E-01
  4.645734E-01
  4.652721E-01
  4.625327E-01
  4.634619E-01
  4.619287E-01
  4.646778E-01
  4.644031E-01
  4.670375E-01
  4.656628E-01
  4.674413E-01
  4.663222E-01
  4.691622E-01
  4.687862E-01
  4.712503E-01
  4.694717E-01
  4.701470E-01
  4.666097E-01
  4.656784E-01
  4.611621E-01
  4.609015E-01
  4.595575E-01
  4.643198E-01
  4.675186E-01
  4.736087E-01
  4.737442E-01
  4.741276E-01
  4.693806E-01
  4.683561E-01
  4.655966E-01
  4.674923E-01
  4.660335E-01
  4.668902E-01
  4.664097E-01
  4.688812E-01
  4.675664E-01
  4.677668E-01
  4.663920E-01
  4.680290E-01
  4.678825E-01
  4.693274E-01
  4.675421E-01
  4.667801E-01
  4.633297E-01
  4.622488E-01
  4.601661E-01
  4.619169E-01
  4.633576E-01
  4.681525E-01
  4.711804E-01
  4.759658E-01
  4.778126E-01
  4.804552E-01
  4.786994E-01
  4.760389E-01
  4.684940E-01
  4.622170E-01
  4.557446E-01
  4.553369E-01
  4.567696E-01
  4.620226E-01
  4.638507E-01
  4.648044E-01
  4.614806E-01
  4.606593E-01
  4.602963E-01
  4.648377E-01
  4.682490E-01
  4.722319E-01
  4.710235E-01
  4.693552E-01
  4.649115E-01
  4.638935E-01
  4.629438E-01
  4.659133E-01
  4.674602E-01
  4.706821E-01
  4.706153E-01
  4.713365E-01
  4.688060E-01
  4.677052E-01
  4.643020E-01
  4.633865E-01
  4.612209E-01
  4.623022E-01
  4.623104E-01
  4.650316E-01
  4.656825E-01
  4.680217E-01
  4.674061E-01
  4.677294E-01
  4.645997E-01
  4.627489E-01
  4.591898E-01
  4.595575E-01
  4.601938E-01
  4.644686E-01
  4.785386E-01
  4.767244E-01
  4.721704E-01
  4.688768E-01
  4.666039E-01
  4.666296E-01
  4.664707E-01
  4.668305E-01
  4.659691E-01
  4.655810E-01
  4.644223E-01
  4.641924E-01
  4.635964E-01
  4.644376E-01
  4.655185E-01
  4.684800E-01
  4.716465E-01
  4.759810E-01
  4.790402E-01
  4.811638E-01
  4.797720E-01
  4.760805E-01
  4.694571E-01
  4.632829E-01
  4.579478E-01
  4.559092E-01
  4.554281E-01
  4.570514E-01
  4.584703E-01
  4.610077E-01
  4.633700E-01
  4.669268E-01
  4.693134E-01
  4.709171E-01
  4.697967E-01
  4.682349E-01
  4.661824E-01
  4.661557E-01
  4.665157E-01
  4.679090E-01
  4.682429E-01
  4.692453E-01
  4.699574E-01
  4.718451E-01
  4.724124E-01
  4.719292E-01
  4.684676E-01
  4.644420E-01
  4.600625E-01
  4.584529E-01
  4.589741E-01
  4.629607E-01
  4.676851E-01
  4.725833E-01
  4.739227E-01
  4.718790E-01
  4.653579E-01
  4.581319E-01
  4.518572E-01
  4.506412E-01
  4.538923E-01
  4.618754E-01
  4.701770E-01
  4.769415E-01
  4.806419E-01
  4.803093E-01
  4.758042E-01
  4.695804E-01
  4.656258E-01
  4.647367E-01
  4.668539E-01
  4.691463E-01
  4.702147E-01
  4.685044E-01
  4.654857E-01
  4.623126E-01
  4.615168E-01
  4.631927E-01
  4.672923E-01
  4.712421E-01
  4.739868E-01
  4.744560E-01
  4.744450E-01
  4.744799E-01
  4.751370E-01
  4.741302E-01
  4.706130E-01
  4.641344E-01
  4.576939E-01
  4.533467E-01
  4.530204E-01
  4.550206E-01
  4.577985E-01
  4.591105E-01
  4.600248E-01
  4.615748E-01
  4.656886E-01
  4.709943E-01
  4.758427E-01
  4.771145E-01
  4.747823E-01
  4.695741E-01
  4.647395E-01
  4.616947E-01
  4.619154E-01
  4.641935E-01
  4.678898E-01
  4.706596E-01
  4.717502E-01
  4.697566E-01
  4.658699E-01
  4.610093E-01
  4.579598E-01
  4.576533E-01
  4.611217E-01
  4.663954E-01
  4.716455E-01
  4.736347E-01
  4.719896E-01
  4.669318E-01
  4.612526E-01
  4.560692E-01
  4.529644E-01
  4.517077E-01
  4.536590E-01
  4.587445E-01
  4.670347E-01
  4.752656E-01
  4.874470E-01
  4.823553E-01
  4.764142E-01
  4.683413E-01
  4.650286E-01
  4.622709E-01
  4.636925E-01
  4.633748E-01
  4.649648E-01
  4.636112E-01
  4.642568E-01
  4.629163E-01
  4.646601E-01
  4.649190E-01
  4.677436E-01
  4.677445E-01
  4.691200E-01
  4.675769E-01
  4.685345E-01
  4.679426E-01
  4.701242E-01
  4.694889E-01
  4.697340E-01
  4.661908E-01
  4.643508E-01
  4.606750E-01
  4.603084E-01
  4.587089E-01
  4.604836E-01
  4.613858E-01
  4.662740E-01
  4.700045E-01
  4.755356E-01
  4.762622E-01
  4.759025E-01
  4.707602E-01
  4.676518E-01
  4.637320E-01
  4.639574E-01
  4.630471E-01
  4.649986E-01
  4.653274E-01
  4.688171E-01
  4.701593E-01
  4.722612E-01
  4.689545E-01
  4.649863E-01
  4.578056E-01
  4.548344E-01
  4.535832E-01
  4.589548E-01
  4.649226E-01
  4.732944E-01
  4.764635E-01
  4.772165E-01
  4.710025E-01
  4.643909E-01
  4.556958E-01
  4.523352E-01
  4.516161E-01
  4.584423E-01
  4.668239E-01
  4.782973E-01
  4.845104E-01
  4.805377E-01
  4.770664E-01
  4.750456E-01
  4.662873E-01
  4.641169E-01
  4.597182E-01
  4.631022E-01
  4.621725E-01
  4.655036E-01
  4.619661E-01
  4.626928E-01
  4.589289E-01
  4.623918E-01
  4.627197E-01
  4.687172E-01
  4.676224E-01
  4.685431E-01
  4.619619E-01
  4.610377E-01
  4.579507E-01
  4.634560E-01
  4.651138E-01
  4.703678E-01
  4.672819E-01
  4.673524E-01
  4.625132E-01
  4.647420E-01
  4.632681E-01
  4.670035E-01
  4.646368E-01
  4.672991E-01
  4.661387E-01
  4.722793E-01
  4.740322E-01
  4.793963E-01
  4.758364E-01
  4.737850E-01
  4.646775E-01
  4.616351E-01
  4.563235E-01
  4.597598E-01
  4.608878E-01
  4.683433E-01
  4.694415E-01
  4.726904E-01
  4.669557E-01
  4.639100E-01
  4.556550E-01
  4.551565E-01
  4.535474E-01
  4.607537E-01
  4.643606E-01
  4.718961E-01
  4.709091E-01
  4.719784E-01
  4.665586E-01
  4.672176E-01
  4.641976E-01
  4.671034E-01
  4.645917E-01
  4.673854E-01
  4.663833E-01
  4.727496E-01
  4.748572E-01
  4.783239E-01
  4.716930E-01
  4.721292E-01
  4.642221E-01
  4.651795E-01
  4.588157E-01
  4.612850E-01
  4.560832E-01
  4.595567E-01
  4.556470E-01
  4.609107E-01
  4.590788E-01
  4.660420E-01
  4.644932E-01
  4.695759E-01
  4.640371E-01
  4.646537E-01
  4.565906E-01
  4.581592E-01
  4.543585E-01
  4.613704E-01
  4.616699E-01
  4.699333E-01
  4.686436E-01
  4.741115E-01
  4.702796E-01
  4.739711E-01
  4.689816E-01
  4.723380E-01
  4.685650E-01
  4.747751E-01
  4.739250E-01
  4.805255E-01
  4.759305E-01
  4.760655E-01
  4.659839E-01
  4.648426E-01
  4.580988E-01
  4.621919E-01
  4.598072E-01
  4.664033E-01
  4.654612E-01
  4.731312E-01
  4.718076E-01
  4.761213E-01
  4.684430E-01
  4.662058E-01
  4.556382E-01
  4.558187E-01
  4.518665E-01
  4.595180E-01
  4.607702E-01
  4.699424E-01
  4.693426E-01
  4.752225E-01
  4.716691E-01
  4.758066E-01
  4.715040E-01
  4.753595E-01
  4.710586E-01
  4.755033E-01
  4.724691E-01
  4.780761E-01
  4.748617E-01
  4.667803E-01
  4.651203E-01
  4.703640E-01
  4.648059E-01
  4.667898E-01
  4.605407E-01
  4.638597E-01
  4.592245E-01
  4.630215E-01
  4.578369E-01
  4.613676E-01
  4.575565E-01
  4.641340E-01
  4.633532E-01
  4.705284E-01
  4.663186E-01
  4.672543E-01
  4.576693E-01
  4.577706E-01
  4.530082E-01
  4.607407E-01
  4.618796E-01
  4.707158E-01
  4.684678E-01
  4.730213E-01
  4.688325E-01
  4.741223E-01
  4.709762E-01
  4.753609E-01
  4.695734E-01
  4.720086E-01
  4.670779E-01
  4.726523E-01
  4.703852E-01
  4.755863E-01
  4.695468E-01
  4.697325E-01
  4.605868E-01
  4.614691E-01
  4.568766E-01
  4.642680E-01
  4.655175E-01
  4.756890E-01
  4.749699E-01
  4.789223E-01
  4.702547E-01
  4.683103E-01
  4.586265E-01
  4.603841E-01