# vtk DataFile Version 2.0
title
ASCII
DATASET STRUCTURED_GRID
DIMENSIONS   64   64    1
POINTS   4096  float
  0.000000E+00  0.000000E+00  0.000000E+00
  0.000000E+00  3.906250E-01  0.000000E+00
  0.000000E+00  7.812500E-01  0.000000E+00
  0.000000E+00  1.171875E+00  0.000000E+00
  0.000000E+00  1.562500E+00  0.000000E+00
  0.000000E+00  1.953125E+00  0.000000E+00
  0.000000E+00  2.343750E+00  0.000000E+00
  0.000000E+00  2.734375E+00  0.000000E+00
  0.000000E+00  3.125000E+00  0.000000E+00
  0.000000E+00  3.515625E+00  0.000000E+00
  0.000000E+00  3.906250E+00  0.000000E+00
  0.000000E+00  4.296875E+00  0.000000E+00
  0.000000E+00  4.687500E+00  0.000000E+00
  0.000000E+00  5.078125E+00  0.000000E+00
  0.000000E+00  5.468750E+00  0.000000E+00
  0.000000E+00  5.859375E+00  0.000000E+00
  0.000000E+00  6.250000E+00  0.000000E+00
  0.000000E+00  6.640625E+00  0.000000E+00
  0.000000E+00  7.031250E+00  0.000000E+00
  0.000000E+00  7.421875E+00  0.000000E+00
  0.000000E+00  7.812500E+00  0.000000E+00
  0.000000E+00  8.203125E+00  0.000000E+00
  0.000000E+00  8.593750E+00  0.000000E+00
  0.000000E+00  8.984375E+00  0.000000E+00
  0.000000E+00  9.375000E+00  0.000000E+00
  0.000000E+00  9.765625E+00  0.000000E+00
  0.000000E+00  1.015625E+01  0.000000E+00
  0.000000E+00  1.054688E+01  0.000000E+00
  0.000000E+00  1.093750E+01  0.000000E+00
  0.000000E+00  1.132812E+01  0.000000E+00
  0.000000E+00  1.171875E+01  0.000000E+00
  0.000000E+00  1.210938E+01  0.000000E+00
  0.000000E+00  1.250000E+01  0.000000E+00
  0.000000E+00  1.289062E+01  0.000000E+00
  0.000000E+00  1.328125E+01  0.000000E+00
  0.000000E+00  1.367188E+01  0.000000E+00
  0.000000E+00  1.406250E+01  0.000000E+00
  0.000000E+00  1.445312E+01  0.000000E+00
  0.000000E+00  1.484375E+01  0.000000E+00
  0.000000E+00  1.523438E+01  0.000000E+00
  0.000000E+00  1.562500E+01  0.000000E+00
  0.000000E+00  1.601562E+01  0.000000E+00
  0.000000E+00  1.640625E+01  0.000000E+00
  0.000000E+00  1.679688E+01  0.000000E+00
  0.000000E+00  1.718750E+01  0.000000E+00
  0.000000E+00  1.757812E+01  0.000000E+00
  0.000000E+00  1.796875E+01  0.000000E+00
  0.000000E+00  1.835938E+01  0.000000E+00
  0.000000E+00  1.875000E+01  0.000000E+00
  0.000000E+00  1.914062E+01  0.000000E+00
  0.000000E+00  1.953125E+01  0.000000E+00
  0.000000E+00  1.992188E+01  0.000000E+00
  0.000000E+00  2.031250E+01  0.000000E+00
  0.000000E+00  2.070312E+01  0.000000E+00
  0.000000E+00  2.109375E+01  0.000000E+00
  0.000000E+00  2.148438E+01  0.000000E+00
  0.000000E+00  2.187500E+01  0.000000E+00
  0.000000E+00  2.226562E+01  0.000000E+00
  0.000000E+00  2.265625E+01  0.000000E+00
  0.000000E+00  2.304688E+01  0.000000E+00
  0.000000E+00  2.343750E+01  0.000000E+00
  0.000000E+00  2.382812E+01  0.000000E+00
  0.000000E+00  2.421875E+01  0.000000E+00
  0.000000E+00  2.460938E+01  0.000000E+00
  3.906250E-01  0.000000E+00  0.000000E+00
  3.906250E-01  3.906250E-01  0.000000E+00
  3.906250E-01  7.812500E-01  0.000000E+00
  3.906250E-01  1.171875E+00  0.000000E+00
  3.906250E-01  1.562500E+00  0.000000E+00
  3.906250E-01  1.953125E+00  0.000000E+00
  3.906250E-01  2.343750E+00  0.000000E+00
  3.906250E-01  2.734375E+00  0.000000E+00
  3.906250E-01  3.125000E+00  0.000000E+00
  3.906250E-01  3.515625E+00  0.000000E+00
  3.906250E-01  3.906250E+00  0.000000E+00
  3.906250E-01  4.296875E+00  0.000000E+00
  3.906250E-01  4.687500E+00  0.000000E+00
  3.906250E-01  5.078125E+00  0.000000E+00
  3.906250E-01  5.468750E+00  0.000000E+00
  3.906250E-01  5.859375E+00  0.000000E+00
  3.906250E-01  6.250000E+00  0.000000E+00
  3.906250E-01  6.640625E+00  0.000000E+00
  3.906250E-01  7.031250E+00  0.000000E+00
  3.906250E-01  7.421875E+00  0.000000E+00
  3.906250E-01  7.812500E+00  0.000000E+00
  3.906250E-01  8.203125E+00  0.000000E+00
  3.906250E-01  8.593750E+00  0.000000E+00
  3.906250E-01  8.984375E+00  0.000000E+00
  3.906250E-01  9.375000E+00  0.000000E+00
  3.906250E-01  9.765625E+00  0.000000E+00
  3.906250E-01  1.015625E+01  0.000000E+00
  3.906250E-01  1.054688E+01  0.000000E+00
  3.906250E-01  1.093750E+01  0.000000E+00
  3.906250E-01  1.132812E+01  0.000000E+00
  3.906250E-01  1.171875E+01  0.000000E+00
  3.906250E-01  1.210938E+01  0.000000E+00
  3.906250E-01  1.250000E+01  0.000000E+00
  3.906250E-01  1.289062E+01  0.000000E+00
  3.906250E-01  1.328125E+01  0.000000E+00
  3.906250E-01  1.367188E+01  0.000000E+00
  3.906250E-01  1.406250E+01  0.000000E+00
  3.906250E-01  1.445312E+01  0.000000E+00
  3.906250E-01  1.484375E+01  0.000000E+00
  3.906250E-01  1.523438E+01  0.000000E+00
  3.906250E-01  1.562500E+01  0.000000E+00
  3.906250E-01  1.601562E+01  0.000000E+00
  3.906250E-01  1.640625E+01  0.000000E+00
  3.906250E-01  1.679688E+01  0.000000E+00
  3.906250E-01  1.718750E+01  0.000000E+00
  3.906250E-01  1.757812E+01  0.000000E+00
  3.906250E-01  1.796875E+01  0.000000E+00
  3.906250E-01  1.835938E+01  0.000000E+00
  3.906250E-01  1.875000E+01  0.000000E+00
  3.906250E-01  1.914062E+01  0.000000E+00
  3.906250E-01  1.953125E+01  0.000000E+00
  3.906250E-01  1.992188E+01  0.000000E+00
  3.906250E-01  2.031250E+01  0.000000E+00
  3.906250E-01  2.070312E+01  0.000000E+00
  3.906250E-01  2.109375E+01  0.000000E+00
  3.906250E-01  2.148438E+01  0.000000E+00
  3.906250E-01  2.187500E+01  0.000000E+00
  3.906250E-01  2.226562E+01  0.000000E+00
  3.906250E-01  2.265625E+01  0.000000E+00
  3.906250E-01  2.304688E+01  0.000000E+00
  3.906250E-01  2.343750E+01  0.000000E+00
  3.906250E-01  2.382812E+01  0.000000E+00
  3.906250E-01  2.421875E+01  0.000000E+00
  3.906250E-01  2.460938E+01  0.000000E+00
  7.812500E-01  0.000000E+00  0.000000E+00
  7.812500E-01  3.906250E-01  0.000000E+00
  7.812500E-01  7.812500E-01  0.000000E+00
  7.812500E-01  1.171875E+00  0.000000E+00
  7.812500E-01  1.562500E+00  0.000000E+00
  7.812500E-01  1.953125E+00  0.000000E+00
  7.812500E-01  2.343750E+00  0.000000E+00
  7.812500E-01  2.734375E+00  0.000000E+00
  7.812500E-01  3.125000E+00  0.000000E+00
  7.812500E-01  3.515625E+00  0.000000E+00
  7.812500E-01  3.906250E+00  0.000000E+00
  7.812500E-01  4.296875E+00  0.000000E+00
  7.812500E-01  4.687500E+00  0.000000E+00
  7.812500E-01  5.078125E+00  0.000000E+00
  7.812500E-01  5.468750E+00  0.000000E+00
  7.812500E-01  5.859375E+00  0.000000E+00
  7.812500E-01  6.250000E+00  0.000000E+00
  7.812500E-01  6.640625E+00  0.000000E+00
  7.812500E-01  7.031250E+00  0.000000E+00
  7.812500E-01  7.421875E+00  0.000000E+00
  7.812500E-01  7.812500E+00  0.000000E+00
  7.812500E-01  8.203125E+00  0.000000E+00
  7.812500E-01  8.593750E+00  0.000000E+00
  7.812500E-01  8.984375E+00  0.000000E+00
  7.812500E-01  9.375000E+00  0.000000E+00
  7.812500E-01  9.765625E+00  0.000000E+00
  7.812500E-01  1.015625E+01  0.000000E+00
  7.812500E-01  1.054688E+01  0.000000E+00
  7.812500E-01  1.093750E+01  0.000000E+00
  7.812500E-01  1.132812E+01  0.000000E+00
  7.812500E-01  1.171875E+01  0.000000E+00
  7.812500E-01  1.210938E+01  0.000000E+00
  7.812500E-01  1.250000E+01  0.000000E+00
  7.812500E-01  1.289062E+01  0.000000E+00
  7.812500E-01  1.328125E+01  0.000000E+00
  7.812500E-01  1.367188E+01  0.000000E+00
  7.812500E-01  1.406250E+01  0.000000E+00
  7.812500E-01  1.445312E+01  0.000000E+00
  7.812500E-01  1.484375E+01  0.000000E+00
  7.812500E-01  1.523438E+01  0.000000E+00
  7.812500E-01  1.562500E+01  0.000000E+00
  7.812500E-01  1.601562E+01  0.000000E+00
  7.812500E-01  1.640625E+01  0.000000E+00
  7.812500E-01  1.679688E+01  0.000000E+00
  7.812500E-01  1.718750E+01  0.000000E+00
  7.812500E-01  1.757812E+01  0.000000E+00
  7.812500E-01  1.796875E+01  0.000000E+00
  7.812500E-01  1.835938E+01  0.000000E+00
  7.812500E-01  1.875000E+01  0.000000E+00
  7.812500E-01  1.914062E+01  0.000000E+00
  7.812500E-01  1.953125E+01  0.000000E+00
  7.812500E-01  1.992188E+01  0.000000E+00
  7.812500E-01  2.031250E+01  0.000000E+00
  7.812500E-01  2.070312E+01  0.000000E+00
  7.812500E-01  2.109375E+01  0.000000E+00
  7.812500E-01  2.148438E+01  0.000000E+00
  7.812500E-01  2.187500E+01  0.000000E+00
  7.812500E-01  2.226562E+01  0.000000E+00
  7.812500E-01  2.265625E+01  0.000000E+00
  7.812500E-01  2.304688E+01  0.000000E+00
  7.812500E-01  2.343750E+01  0.000000E+00
  7.812500E-01  2.382812E+01  0.000000E+00
  7.812500E-01  2.421875E+01  0.000000E+00
  7.812500E-01  2.460938E+01  0.000000E+00
  1.171875E+00  0.000000E+00  0.000000E+00
  1.171875E+00  3.906250E-01  0.000000E+00
  1.171875E+00  7.812500E-01  0.000000E+00
  1.171875E+00  1.171875E+00  0.000000E+00
  1.171875E+00  1.562500E+00  0.000000E+00
  1.171875E+00  1.953125E+00  0.000000E+00
  1.171875E+00  2.343750E+00  0.000000E+00
  1.171875E+00  2.734375E+00  0.000000E+00
  1.171875E+00  3.125000E+00  0.000000E+00
  1.171875E+00  3.515625E+00  0.000000E+00
  1.171875E+00  3.906250E+00  0.000000E+00
  1.171875E+00  4.296875E+00  0.000000E+00
  1.171875E+00  4.687500E+00  0.000000E+00
  1.171875E+00  5.078125E+00  0.000000E+00
  1.171875E+00  5.468750E+00  0.000000E+00
  1.171875E+00  5.859375E+00  0.000000E+00
  1.171875E+00  6.250000E+00  0.000000E+00
  1.171875E+00  6.640625E+00  0.000000E+00
  1.171875E+00  7.031250E+00  0.000000E+00
  1.171875E+00  7.421875E+00  0.000000E+00
  1.171875E+00  7.812500E+00  0.000000E+00
  1.171875E+00  8.203125E+00  0.000000E+00
  1.171875E+00  8.593750E+00  0.000000E+00
  1.171875E+00  8.984375E+00  0.000000E+00
  1.171875E+00  9.375000E+00  0.000000E+00
  1.171875E+00  9.765625E+00  0.000000E+00
  1.171875E+00  1.015625E+01  0.000000E+00
  1.171875E+00  1.054688E+01  0.000000E+00
  1.171875E+00  1.093750E+01  0.000000E+00
  1.171875E+00  1.132812E+01  0.000000E+00
  1.171875E+00  1.171875E+01  0.000000E+00
  1.171875E+00  1.210938E+01  0.000000E+00
  1.171875E+00  1.250000E+01  0.000000E+00
  1.171875E+00  1.289062E+01  0.000000E+00
  1.171875E+00  1.328125E+01  0.000000E+00
  1.171875E+00  1.367188E+01  0.000000E+00
  1.171875E+00  1.406250E+01  0.000000E+00
  1.171875E+00  1.445312E+01  0.000000E+00
[...]
POINT_DATA   4096
SCALARS CON  float  1
LOOKUP_TABLE default
  4.712426E-01
  4.710772E-01
  4.768984E-01
  4.739669E-01
  4.744086E-01
  4.678510E-01
  4.697001E-01
  4.682928E-01
  4.741893E-01
  4.721523E-01
  4.736793E-01
  4.674357E-01
  4.679531E-01
  4.639801E-01
  4.681172E-01
  4.673596E-01
  4.732398E-01
  4.719810E-01
  4.750443E-01
  4.697866E-01
  4.698661E-01
  4.641493E-01
  4.656267E-01
  4.613261E-01
  4.631667E-01
  4.591770E-01
  4.631020E-01
  4.633075E-01
  4.711651E-01
  4.715184E-01
  4.747672E-01
  4.688758E-01
  4.692635E-01
  4.659465E-01
  4.712467E-01
  4.701352E-01
  4.728078E-01
  4.667948E-01
  4.666224E-01
  4.616158E-01
  4.643980E-01
  4.614557E-01
  4.642510E-01
  4.601850E-01
  4.623760E-01
  4.595760E-01
  4.653678E-01
  4.674982E-01
  4.766439E-01
  4.768526E-01
  4.780802E-01
  4.684900E-01
  4.647684E-01
  4.590521E-01
  4.657814E-01
  4.708211E-01
  4.821718E-01
  4.829258E-01
  4.845312E-01
  4.765446E-01
  4.747220E-01
  4.682566E-01
  4.697704E-01
  4.665463E-01
  4.713095E-01
  4.728079E-01
  4.803862E-01
  4.797575E-01
  4.793069E-01
  4.703741E-01
  4.678819E-01
  4.641724E-01
  4.690174E-01
  4.692022E-01
  4.732417E-01
  4.704746E-01
  4.721063E-01
  4.679819E-01
  4.689435E-01
  4.655189E-01
  4.693126E-01
  4.695536E-01
  4.746625E-01
  4.718842E-01
  4.715622E-01
  4.651966E-01
  4.655968E-01
  4.629404E-01
  4.665508E-01
  4.645663E-01
  4.672496E-01
  4.650831E-01
  4.693174E-01
  4.689728E-01
  4.731367E-01
  4.703381E-01
  4.714968E-01
  4.672069E-01
  4.686203E-01
  4.651497E-01
  4.671139E-01
  4.642363E-01
  4.671316E-01
  4.646916E-01
  4.663693E-01
  4.614283E-01
  4.612762E-01
  4.567430E-01
  4.588940E-01
  4.575206E-01
  4.634720E-01
  4.665756E-01
  4.758321E-01
  4.772095E-01
  4.783145E-01
  4.694588E-01
  4.660450E-01
  4.626745E-01
  4.711564E-01
  4.776603E-01
  4.869614E-01
  4.846345E-01
  4.821873E-01
  4.731431E-01
  4.715504E-01
  4.673444E-01
  4.695609E-01
  4.670342E-01
  4.639409E-01
  4.718498E-01
  4.807345E-01
  4.824194E-01
  4.794632E-01
  4.711870E-01
  4.663572E-01
  4.639619E-01
  4.671392E-01
  4.695286E-01
  4.728016E-01
  4.724557E-01
  4.726444E-01
  4.701431E-01
  4.694937E-01
  4.677600E-01
  4.693191E-01
  4.700018E-01
  4.724008E-01
  4.715357E-01
  4.711118E-01
  4.681953E-01
  4.675676E-01
  4.657085E-01
  4.660976E-01
  4.646141E-01
  4.651759E-01
  4.643212E-01
  4.658032E-01
  4.651490E-01
  4.655209E-01
  4.634009E-01
  4.638802E-01
  4.642166E-01
  4.677577E-01
  4.688650E-01
  4.698253E-01
  4.670382E-01
  4.658014E-01
  4.633004E-01
  4.629588E-01
  4.601061E-01
  4.585187E-01
  4.554808E-01
  4.560845E-01
  4.573022E-01
  4.628940E-01
  4.682496E-01
  4.752459E-01
  4.773675E-01
  4.767093E-01
  4.705031E-01
  4.663025E-01
  4.642008E-01
  4.694531E-01
  4.762434E-01
  4.839565E-01
  4.847180E-01
  4.814363E-01
  4.725289E-01
  4.652131E-01
  4.581545E-01
  4.564386E-01
  4.570390E-01
  4.633552E-01
  4.724711E-01
  4.789790E-01
  4.830784E-01
  4.773695E-01
  4.697249E-01
  4.606342E-01
  4.590226E-01
  4.600615E-01
  4.663252E-01
  4.700922E-01
  4.747010E-01
  4.742875E-01
  4.737993E-01
  4.691134E-01
  4.674085E-01
  4.657370E-01
  4.694332E-01
  4.715116E-01
  4.744294E-01
  4.721176E-01
  4.708923E-01
  4.677684E-01
  4.687948E-01
  4.682075E-01
  4.695235E-01
  4.668403E-01
  4.657884E-01
  4.628601E-01
  4.642110E-01
  4.645751E-01
  4.675784E-01
  4.668164E-01
  4.670203E-01
  4.639466E-01
  4.638660E-01
  4.627056E-01
  4.656362E-01
  4.666475E-01
  4.689646E-01
  4.661808E-01
  4.638705E-01
  4.592933E-01
  4.596121E-01
  4.600666E-01
  4.642743E-01
  4.659457E-01
  4.699899E-01
  4.713372E-01
  4.739052E-01
  4.711873E-01
  4.686897E-01
  4.643334E-01
  4.663984E-01
  4.704670E-01
  4.786368E-01
  4.813537E-01
  4.810776E-01
  4.738063E-01
  4.680080E-01
  4.613770E-01
  4.596190E-01
  4.573621E-01
  4.599184E-01
  4.600860E-01
  4.716057E-01
  4.753499E-01
  4.798721E-01
  4.717629E-01
  4.669833E-01
  4.576465E-01
  4.589408E-01
  4.582543E-01
  4.660142E-01
  4.674711E-01
  4.735055E-01
  4.708662E-01
  4.725319E-01
  4.672104E-01
  4.689910E-01
  4.661995E-01
  4.710614E-01
  4.699372E-01
  4.742968E-01
  4.710753E-01
  4.730199E-01
  4.679716E-01
  4.689630E-01
  4.638850E-01
  4.655152E-01
  4.613583E-01
  4.638505E-01
  4.605737E-01
  4.641090E-01
  4.618159E-01
  4.657586E-01
  4.631276E-01
  4.666176E-01
  4.640406E-01
  4.679128E-01
  4.654133E-01
  4.688745E-01
  4.657243E-01
  4.682271E-01
  4.634913E-01
  4.644365E-01
  4.599623E-01
  4.639683E-01
  4.639693E-01
  4.707461E-01
  4.697856E-01
  4.731062E-01
  4.689136E-01
  4.705460E-01
  4.655041E-01
  4.663658E-01
  4.614726E-01
  4.646749E-01
  4.641761E-01
  4.716021E-01
  4.722692E-01
  4.766686E-01
  4.714061E-01
  4.698101E-01
  4.608634E-01
  4.588269E-01
  4.530179E-01
  4.574245E-01
  4.649743E-01
  4.722739E-01
  4.724196E-01
  4.766758E-01
  4.686954E-01
  4.650863E-01
  4.551457E-01
  4.563225E-01
  4.546026E-01
  4.629056E-01
  4.645042E-01
  4.720048E-01
  4.695322E-01
  4.716892E-01
  4.652267E-01
  4.670817E-01
  4.644111E-01
  4.715948E-01
  4.719113E-01
  4.775868E-01
  4.729187E-01
  4.734716E-01
  4.662972E-01
  4.673649E-01
  4.623788E-01
  4.653598E-01
  4.610623E-01
  4.640470E-01
  4.607228E-01
  4.666595E-01
  4.669554E-01
  4.740702E-01
  4.709035E-01
  4.715754E-01
  4.634647E-01
  4.642394E-01
  4.611556E-01
  4.681854E-01
  4.682157E-01
  4.731264E-01
  4.673941E-01
  4.676230E-01
  4.626393E-01
  4.689685E-01
  4.705626E-01
  4.781506E-01
  4.741866E-01
  4.740234E-01
  4.658802E-01
  4.664720E-01
  4.611400E-01
  4.636446E-01
  4.595757E-01
  4.643538E-01
  4.635021E-01
  4.701052E-01
  4.676994E-01
  4.704575E-01
  4.650463E-01
  4.677068E-01
  4.641518E-01
  4.680027E-01
  4.639169E-01
  4.672092E-01
  4.641419E-01
  4.698778E-01
  4.695403E-01
  4.725577E-01
  4.668724E-01
  4.655815E-01
  4.593581E-01
  4.610529E-01
  4.593458E-01
  4.648705E-01
  4.648454E-01
  4.694359E-01
  4.664540E-01
  4.680631E-01
  4.643066E-01
  4.680764E-01
  4.679774E-01
  4.743481E-01
  4.740718E-01
  4.777362E-01
  4.735248E-01
  4.733089E-01
  4.660299E-01
  4.642254E-01
  4.577783E-01
  4.592334E-01
  4.572057E-01
  4.623282E-01
  4.623033E-01
  4.682088E-01
  4.681720E-01
  4.729337E-01
  4.702020E-01
  4.718880E-01
  4.677885E-01
  4.706061E-01
  4.687481E-01
  4.726718E-01
  4.696867E-01
  4.708994E-01
  4.653363E-01
  4.661023E-01
  4.634986E-01
  4.697390E-01
  4.718681E-01
  4.783025E-01
  4.749868E-01
  4.739220E-01
  4.661831E-01
  4.657430E-01
  4.615416E-01
  4.640187E-01
  4.607282E-01
  4.631297E-01
  4.602610E-01
  4.638708E-01
  4.623017E-01
  4.667567E-01
  4.654519E-01
  4.694932E-01
  4.667641E-01
  4.685159E-01
  4.638721E-01
  4.658501E-01
  4.669239E-01
  4.676175E-01
  4.675525E-01
  4.704762E-01
  4.690049E-01
  4.683244E-01
  4.642215E-01
  4.638488E-01
  4.626402E-01
  4.658507E-01
  4.669439E-01
  4.700137E-01
  4.685653E-01
  4.682818E-01
  4.651914E-01
  4.667860E-01
  4.685526E-01
  4.748984E-01
  4.776742E-01
  4.800139E-01
  4.758015E-01
  4.719534E-01
  4.651346E-01
  4.626516E-01
  4.598154E-01
  4.617539E-01
  4.619730E-01
  4.650864E-01
  4.657769E-01
  4.703157E-01
  4.731574E-01
  4.780227E-01
  4.770863E-01
  4.754524E-01
  4.698354E-01
  4.688500E-01
  4.683696E-01
  4.725670E-01
  4.731636E-01
  4.736914E-01
  4.689795E-01
  4.670401E-01
  4.651789E-01
  4.696416E-01
  4.727439E-01
  4.764200E-01
  4.733308E-01
  4.705555E-01
  4.656628E-01
  4.657440E-01
  4.645053E-01
  4.659494E-01
  4.643617E-01
  4.660390E-01
  4.657021E-01
  4.677055E-01
  4.654108E-01
  4.648352E-01
  4.625709E-01
  4.656849E-01
  4.680326E-01
  4.725628E-01
  4.715917E-01
  4.707973E-01
  4.618751E-01
  4.629597E-01
  4.651142E-01
  4.681101E-01
  4.701415E-01
  4.715260E-01
  4.714778E-01
  4.712581E-01
  4.707084E-01
  4.710448E-01
  4.711514E-01
  4.709813E-01
  4.692369E-01
  4.674663E-01
  4.664737E-01
  4.682372E-01
  4.715912E-01
  4.756358E-01
  4.776502E-01
  4.774849E-01
  4.745179E-01
  4.704504E-01
  4.655585E-01
  4.619321E-01
  4.600472E-01
  4.612705E-01
  4.639992E-01
  4.673156E-01
  4.691228E-01
  4.702339E-01
  4.705639E-01
  4.713088E-01
  4.715431E-01
  4.722237E-01
  4.730669E-01
  4.749430E-01
  4.759788E-01
  4.755593E-01
  4.724543E-01
  4.686024E-01
  4.650191E-01
  4.638604E-01
  4.645342E-01
  4.669933E-01
  4.689418E-01
  4.698840E-01
  4.688245E-01
  4.677534E-01
  4.672816E-01
  4.684915E-01
  4.694735E-01
  4.698188E-01
  4.686668E-01
  4.678400E-01
  4.673382E-01
  4.677573E-01
  4.675323E-01
  4.672367E-01
  4.665741E-01
  4.668237E-01
  4.668372E-01
  4.665413E-01
  4.647360E-01
  4.630002E-01
  4.621976E-01
  4.611290E-01
  4.636194E-01
  4.676584E-01
  4.717259E-01
  4.733496E-01
  4.732435E-01
  4.718306E-01
  4.713294E-01
  4.716045E-01
  4.729524E-01
  4.733017E-01
  4.723584E-01
  4.694688E-01
  4.669996E-01
  4.662109E-01
  4.688590E-01
  4.730338E-01
  4.768189E-01
  4.769805E-01
  4.738864E-01
  4.685379E-01
  4.644185E-01
  4.627410E-01
  4.647015E-01
  4.682410E-01
  4.718951E-01
  4.730474E-01
  4.724602E-01
  4.710135E-01
  4.710920E-01
  4.718095E-01
  4.725558E-01
  4.716882E-01
  4.707514E-01
  4.703227E-01
  4.714391E-01
  4.720347E-01
  4.714250E-01
  4.686600E-01
  4.658902E-01
  4.640971E-01
  4.648572E-01
  4.665146E-01
  4.679942E-01
  4.673195E-01
  4.660348E-01
  4.654211E-01
  4.674897E-01
  4.703580E-01
  4.724052E-01
  4.717172E-01
  4.705252E-01
  4.703834E-01
  4.725894E-01
  4.742934E-01
  4.738221E-01
  4.702458E-01
  4.668150E-01
  4.653288E-01
  4.668047E-01
  4.682499E-01
  4.680420E-01
  4.650819E-01
  4.580733E-01
  4.596134E-01
  4.623849E-01
  4.667652E-01
  4.703255E-01
  4.732724E-01
  4.738113E-01
  4.736292E-01
  4.725437E-01
  4.727218E-01
  4.727101E-01
  4.726870E-01
  4.705565E-01
  4.681533E-01
  4.658656E-01
  4.663516E-01
  4.683241E-01
  4.716930E-01
  4.734334E-01
  4.736925E-01
  4.711348E-01
  4.679344E-01
  4.642490E-01
  4.629125E-01
  4.637585E-01
  4.678673E-01
  4.720969E-01
  4.750770E-01
  4.739840E-01
  4.708215E-01
  4.665340E-01
  4.644060E-01
  4.639887E-01
  4.663643E-01
  4.694205E-01
  4.729120E-01
  4.736553E-01
  4.718163E-01
  4.669533E-01
  4.628114E-01
  4.604299E-01
  4.615780E-01
  4.635700E-01
  4.656580E-01
  4.655436E-01
  4.651207E-01
  4.647239E-01
  4.668137E-01
  4.697752E-01
  4.730598E-01
  4.734624E-01
  4.719517E-01
  4.689484E-01
  4.680200E-01
  4.688764E-01
  4.717943E-01
  4.735576E-01
  4.742068E-01
  4.725737E-01
  4.707020E-01
  4.677623E-01
  4.650640E-01
  4.615557E-01
  4.593124E-01
  4.611886E-01
  4.616017E-01
  4.626733E-01
  4.675939E-01
  4.698566E-01
  4.721615E-01
  4.699927E-01
  4.690848E-01
  4.668076E-01
  4.684345E-01
  4.690542E-01
  4.714526E-01
  4.697980E-01
  4.683520E-01
  4.642195E-01
  4.639132E-01
  4.643858E-01
  4.693955E-01
  4.722533E-01
  4.747883E-01
  4.716170E-01
  4.684221E-01
  4.634938E-01
  4.635603E-01
  4.649991E-01
  4.708845E-01
  4.742300E-01
  4.770206E-01
  4.743222E-01
  4.721387E-01
  4.682603E-01
  4.679957E-01
  4.663930E-01
  4.669777E-01
  4.653767E-01
  4.664832E-01
  4.659413E-01
  4.673158E-01
  4.654708E-01
  4.649947E-01
  4.626508E-01
  4.638493E-01
  4.642697E-01
  4.671790E-01
  4.669377E-01
  4.677151E-01
  4.663220E-01
  4.685103E-01
  4.698223E-01
  4.727325E-01
  4.708659E-01
  4.687978E-01
  4.647537E-01
  4.658394E-01
  4.680591E-01
  4.734374E-01
  4.747026E-01
  4.753061E-01
  4.722711E-01
  4.719047E-01
  4.702772E-01
  4.706521E-01
  4.674409E-01
  4.651948E-01
  4.597121E-01
  4.625776E-01
  4.632262E-01
  4.673718E-01
  4.681198E-01
  4.709821E-01
  4.691149E-01
  4.691929E-01
  4.661104E-01
  4.672072E-01
  4.661027E-01
  4.679803E-01
  4.656391E-01
  4.656989E-01
  4.631404E-01
  4.652574E-01
  4.657524E-01
  4.700752E-01
  4.709161E-01
  4.737155E-01
  4.715173E-01
  4.705305E-01
  4.652356E-01
  4.636420E-01
  4.613192E-01
  4.652493E-01
  4.679583E-01
  4.731547E-01
  4.723105E-01
  4.714853E-01
  4.660388E-01
  4.644983E-01
  4.619564E-01
  4.647727E-01
  4.657167E-01
  4.695312E-01
  4.684564E-01
  4.683072E-01
  4.637571E-01
  4.629320E-01
  4.608972E-01
  4.638283E-01
  4.642051E-01
  4.670788E-01
  4.659366E-01
  4.678150E-01
  4.672294E-01
  4.704500E-01
  4.701665E-01
  4.714243E-01
  4.674774E-01
  4.655859E-01
  4.612697E-01
  4.623043E-01
  4.627762E-01
  4.681251E-01
  4.706551E-01
  4.753428E-01
  4.749296E-01
  4.753261E-01
  4.704627E-01
  4.677043E-01
  4.622364E-01
  4.615458E-01
  4.649930E-01
  4.655704E-01
  4.650486E-01
  4.679596E-01
  4.684398E-01
  4.699689E-01
  4.673640E-01
  4.662276E-01
  4.632536E-01
  4.641294E-01
  4.638995E-01
  4.662301E-01
  4.653563E-01
  4.658737E-01
  4.638191E-01
  4.650796E-01
  4.656420E-01
  4.700490E-01
  4.723751E-01
  4.757518E-01
  4.741647E-01
  4.723716E-01
  4.669267E-01
  4.645921E-01
  4.621613E-01
  4.646138E-01
  4.661041E-01
  4.696748E-01
  4.694485E-01
  4.703528E-01
  4.685615E-01
  4.694050E-01
  4.677972E-01
  4.678979E-01
  4.650351E-01
  4.648406E-01
  4.634366E-01
  4.656090E-01
  4.658078E-01
  4.678528E-01
  4.666758E-01
  4.674906E-01
  4.662808E-01
  4.680844E-01
  4.677528E-01
  4.694423E-01
  4.682028E-01
  4.690063E-01
  4.671279E-01
  4.669507E-01
  4.635655E-01
  4.625660E-01
  4.607535E-01
  4.637705E-01
  4.661584E-01
  4.707298E-01
  4.711264E-01
  4.719915E-01
  4.696217E-01
  4.698783E-01
  4.682965E-01
  4.692437E-01
  4.674307E-01
  4.674585E-01
  4.660768E-01
  4.674821E-01
  4.669901E-01
  4.670421E-01
  4.672973E-01
  4.687616E-01
  4.690509E-01
  4.688114E-01
  4.671417E-01
  4.661314E-01
  4.648150E-01
  4.643108E-01
  4.634122E-01
  4.640484E-01
  4.654422E-01
  4.684209E-01
  4.705127E-01
  4.722788E-01
  4.727938E-01
  4.740068E-01
  4.743096E-01
  4.736665E-01
  4.698113E-01
  4.648205E-01
  4.597762E-01
  4.582576E-01
  4.595181E-01
  4.632360E-01
  4.656089E-01
  4.664159E-01
  4.648779E-01
  4.640901E-01
  4.641921E-01
  4.664533E-01
  4.683514E-01
  4.697857E-01
  4.689296E-01
  4.676734E-01
  4.658972E-01
  4.657147E-01
  4.657982E-01
  4.667874E-01
  4.668511E-01
  4.672897E-01
  4.671498E-01
  4.678042E-01
  4.675571E-01
  4.671667E-01
  4.652588E-01
  4.637259E-01
  4.622492E-01
  4.627960E-01
  4.639515E-01
  4.661386E-01
  4.671725E-01
  4.680749E-01
  4.678942E-01
  4.681446E-01
  4.671672E-01
  4.657992E-01
  4.631337E-01
  4.618129E-01
  4.617654E-01
  4.641171E-01
  4.742694E-01
  4.722134E-01
  4.698562E-01
  4.673645E-01
  4.673096E-01
  4.672040E-01
  4.678626E-01
  4.670636E-01
  4.668931E-01
  4.658320E-01
  4.657174E-01
  4.646798E-01
  4.648315E-01
  4.648768E-01
  4.668866E-01
  4.686561E-01
  4.712812E-01
  4.724676E-01
  4.740995E-01
  4.744506E-01
  4.749722E-01
  4.730719E-01
  4.702554E-01
  4.654321E-01
  4.619970E-01
  4.595112E-01
  4.601024E-01
  4.611043E-01
  4.631292E-01
  4.638394E-01
  4.654875E-01
  4.667746E-01
  4.691657E-01
  4.696711E-01
  4.693241E-01
  4.668631E-01
  4.657304E-01
  4.653351E-01
  4.672907E-01
  4.683976E-01
  4.692993E-01
  4.682754E-01
  4.683021E-01
  4.683704E-01
  4.697788E-01
  4.692752E-01
  4.678589E-01
  4.643404E-01
  4.620889E-01
  4.605358E-01
  4.619096E-01
  4.641525E-01
  4.683728E-01
  4.714505E-01
  4.735737E-01
  4.717945E-01
  4.682508E-01
  4.627630E-01
  4.591985E-01
  4.572280E-01
  4.592288E-01
  4.629505E-01
  4.687117E-01
  4.724690E-01
  4.764587E-01
  4.751921E-01
  4.716851E-01
  4.667975E-01
  4.653777E-01
  4.654792E-01
  4.679422E-01
  4.688609E-01
  4.697388E-01
  4.682439E-01
  4.668824E-01
  4.639447E-01
  4.629352E-01
  4.629953E-01
  4.667157E-01
  4.702586E-01
  4.734516E-01
  4.728330E-01
  4.718793E-01
  4.704571E-01
  4.716031E-01
  4.715387E-01
  4.703841E-01
  4.653517E-01
  4.606595E-01
  4.568376E-01
  4.575187E-01
  4.593574E-01
  4.621495E-01
  4.620237E-01
  4.619441E-01
  4.617829E-01
  4.651703E-01
  4.689654E-01
  4.730238E-01
  4.730864E-01
  4.714358E-01
  4.674778E-01
  4.654110E-01
  4.638476E-01
  4.648128E-01
  4.653582E-01
  4.673142E-01
  4.681447E-01
  4.696373E-01
  4.687200E-01
  4.672423E-01
  4.635127E-01
  4.613623E-01
  4.601726E-01
  4.629404E-01
  4.666231E-01
  4.714288E-01
  4.728095E-01
  4.720408E-01
  4.677099E-01
  4.640592E-01
  4.602434E-01
  4.587358E-01
  4.570365E-01
  4.579000E-01
  4.601761E-01
  4.663208E-01
  4.720794E-01
  4.816967E-01
  4.776676E-01
  4.726858E-01
  4.672433E-01
  4.651946E-01
  4.639292E-01
  4.648526E-01
  4.648762E-01
  4.660020E-01
  4.655451E-01
  4.656004E-01
  4.639534E-01
  4.637381E-01
  4.634939E-01
  4.657903E-01
  4.674302E-01
  4.695058E-01
  4.690219E-01
  4.689214E-01
  4.679273E-01
  4.688831E-01
  4.687739E-01
  4.688569E-01
  4.663537E-01
  4.644910E-01
  4.622909E-01
  4.627830E-01
  4.630278E-01
  4.643136E-01
  4.640368E-01
  4.655194E-01
  4.673429E-01
  4.713282E-01
  4.730870E-01
  4.732626E-01
  4.697552E-01
  4.670534E-01
  4.647268E-01
  4.653529E-01
  4.653611E-01
  4.661426E-01
  4.657046E-01
  4.674879E-01
  4.692274E-01
  4.716689E-01
  4.703392E-01
  4.672002E-01
  4.618062E-01
  4.592853E-01
  4.588609E-01
  4.625783E-01
  4.665648E-01
  4.713790E-01
  4.730964E-01
  4.731850E-01
  4.693643E-01
  4.652126E-01
  4.601388E-01
  4.581017E-01
  4.577596E-01
  4.618452E-01
  4.675149E-01
  4.753381E-01
  4.800735E-01
  4.769826E-01
  4.744676E-01
  4.715497E-01
  4.659447E-01
  4.644496E-01
  4.628454E-01
  4.647884E-01
  4.644300E-01
  4.658277E-01
  4.642524E-01
  4.644229E-01
  4.619910E-01
  4.624204E-01
  4.620387E-01
  4.655487E-01
  4.668206E-01
  4.684772E-01
  4.652472E-01
  4.635291E-01
  4.613116E-01
  4.643194E-01
  4.663841E-01
  4.693768E-01
  4.671678E-01
  4.656258E-01
  4.626814E-01
  4.644736E-01
  4.654229E-01
  4.679422E-01
  4.662038E-01
  4.660624E-01
  4.651450E-01
  4.690724E-01
  4.717268E-01
  4.751781E-01
  4.731709E-01
  4.709319E-01
  4.656317E-01
  4.636169E-01
  4.610075E-01
  4.624648E-01
  4.630398E-01
  4.668335E-01
  4.682161E-01
  4.705415E-01
  4.681680E-01
  4.660150E-01
  4.609563E-01
  4.596245E-01
  4.586846E-01
  4.626695E-01
  4.654834E-01
  4.696646E-01
  4.690475E-01
  4.684856E-01
  4.650627E-01
  4.653475E-01
  4.651128E-01
  4.677658E-01
  4.672232E-01
  4.682497E-01
  4.677236E-01
  4.714439E-01
  4.738034E-01
  4.748638E-01
  4.703130E-01
  4.702829E-01
  4.656868E-01
  4.665549E-01
  4.627106E-01
  4.637471E-01
  4.600301E-01
  4.617774E-01
  4.594086E-01
  4.626412E-01
  4.614284E-01
  4.653242E-01
  4.641924E-01
  4.673837E-01
  4.645140E-01
  4.652783E-01
  4.604585E-01
  4.611812E-01
  4.588726E-01
  4.635752E-01
  4.644763E-01
  4.697511E-01
  4.685266E-01
  4.710554E-01
  4.686174E-01
  4.716612E-01
  4.697904E-01
  4.721231E-01
  4.690654E-01
  4.717613E-01
  4.710170E-01
  4.755373E-01
  4.732021E-01
  4.728408E-01
  4.659220E-01
  4.649413E-01
  4.615629E-01
  4.649636E-01
  4.636753E-01
  4.667276E-01
  4.649717E-01
  4.691859E-01
  4.691064E-01
  4.727037E-01
  4.684227E-01
  4.665474E-01
  4.595667E-01
  4.596770E-01
  4.578116E-01
  4.627618E-01
  4.632163E-01
  4.680059E-01
  4.670548E-01
  4.704570E-01
  4.687676E-01
  4.722087E-01
  4.709529E-01
  4.745121E-01
  4.725791E-01
  4.751585E-01
  4.728436E-01
  4.757108E-01
  4.733362E-01
  4.665494E-01
  4.651104E-01
  4.690088E-01
  4.654348E-01
  4.678505E-01
  4.639910E-01
  4.664321E-01
  4.621673E-01
  4.640524E-01
  4.599530E-01
  4.630398E-01
  4.607692E-01
  4.656815E-01
  4.647048E-01
  4.697359E-01
  4.667697E-01
  4.677136E-01
  4.605418E-01
  4.603178E-01
  4.567992E-01
  4.631296E-01
  4.646574E-01
  4.711367E-01
  4.683931E-01
  4.703801E-01
  4.666791E-01
  4.710979E-01
  4.697386E-01
  4.734379E-01
  4.688818E-01
  4.702706E-01
  4.666240E-01
  4.709211E-01
  4.689882E-01
  4.720935E-01
  4.672143E-01
  4.679828E-01
  4.626833E-01
  4.645889E-01
  4.612790E-01
  4.656527E-01
  4.649260E-01
  4.710458E-01
  4.698983E-01
  4.730719E-01
  4.676491E-01
  4.675003E-01
  4.614447E-01
  4.632788E-01