# vtk DataFile Version 2.0
title
ASCII
DATASET STRUCTURED_GRID
DIMENSIONS   64   64    1
POINTS   4096  float
  0.000000E+00  0.000000E+00  0.000000E+00
  0.000000E+00  3.906250E-01  0.000000E+00
  0.000000E+00  7.812500E-01  0.000000E+00
  0.000000E+00  1.171875E+00  0.000000E+00
  0.000000E+00  1.562500E+00  0.000000E+00
  0.000000E+00  1.953125E+00  0.000000E+00
  0.000000E+00  2.343750E+00  0.000000E+00
  0.000000E+00  2.734375E+00  0.000000E+00
  0.000000E+00  3.125000E+00  0.000000E+00
  0.000000E+00  3.515625E+00  0.000000E+00
  0.000000E+00  3.906250E+00  0.000000E+00
  0.000000E+00  4.296875E+00  0.000000E+00
  0.000000E+00  4.687500E+00  0.000000E+00
  0.000000E+00  5.078125E+00  0.000000E+00
  0.000000E+00  5.468750E+00  0.000000E+00
  0.000000E+00  5.859375E+00  0.000000E+00
  0.000000E+00  6.250000E+00  0.000000E+00
  0.000000E+00  6.640625E+00  0.000000E+00
  0.000000E+00  7.031250E+00  0.000000E+00
  0.000000E+00  7.421875E+00  0.000000E+00
  0.000000E+00  7.812500E+00  0.000000E+00
  0.000000E+00  8.203125E+00  0.000000E+00
  0.000000E+00  8.593750E+00  0.000000E+00
  0.000000E+00  8.984375E+00  0.000000E+00
  0.000000E+00  9.375000E+00  0.000000E+00
  0.000000E+00  9.765625E+00  0.000000E+00
  0.000000E+00  1.015625E+01  0.000000E+00
  0.000000E+00  1.054688E+01  0.000000E+00
  0.000000E+00  1.093750E+01  0.000000E+00
  0.000000E+00  1.132812E+01  0.000000E+00
  0.000000E+00  1.171875E+01  0.000000E+00
  0.000000E+00  1.210938E+01  0.000000E+00
  0.000000E+00  1.250000E+01  0.000000E+00
  0.000000E+00  1.289062E+01  0.000000E+00
  0.000000E+00  1.328125E+01  0.000000E+00
  0.000000E+00  1.367188E+01  0.000000E+00
  0.000000E+00  1.406250E+01  0.000000E+00
  0.000000E+00  1.445312E+01  0.000000E+00
  0.000000E+00  1.484375E+01  0.000000E+00
  0.000000E+00  1.523438E+01  0.000000E+00
  0.000000E+00  1.562500E+01  0.000000E+00
  0.000000E+00  1.601562E+01  0.000000E+00
  0.000000E+00  1.640625E+01  0.000000E+00
  0.000000E+00  1.679688E+01  0.000000E+00
  0.000000E+00  1.718750E+01  0.000000E+00
  0.000000E+00  1.757812E+01  0.000000E+00
  0.000000E+00  1.796875E+01  0.000000E+00
  0.000000E+00  1.835938E+01  0.000000E+00
  0.000000E+00  1.875000E+01  0.000000E+00
  0.000000E+00  1.914062E+01  0.000000E+00
  0.000000E+00  1.953125E+01  0.000000E+00
  0.000000E+00  1.992188E+01  0.000000E+00
  0.000000E+00  2.031250E+01  0.000000E+00
  0.000000E+00  2.070312E+01  0.000000E+00
  0.000000E+00  2.109375E+01  0.000000E+00
  0.000000E+00  2.148438E+01  0.000000E+00
  0.000000E+00  2.187500E+01  0.000000E+00
  0.000000E+00  2.226562E+01  0.000000E+00
  0.000000E+00  2.265625E+01  0.000000E+00
  0.000000E+00  2.304688E+01  0.000000E+00
  0.000000E+00  2.343750E+01  0.000000E+00
  0.000000E+00  2.382812E+01  0.000000E+00
  0.000000E+00  2.421875E+01  0.000000E+00
  0.000000E+00  2.460938E+01  0.000000E+00
  3.906250E-01  0.000000E+00  0.000000E+00
  3.906250E-01  3.906250E-01  0.000000E+00
  3.906250E-01  7.812500E-01  0.000000E+00
  3.906250E-01  1.171875E+00  0.000000E+00
  3.906250E-01  1.562500E+00  0.000000E+00
  3.906250E-01  1.953125E+00  0.000000E+00
  3.906250E-01  2.343750E+00  0.000000E+00
  3.906250E-01  2.734375E+00  0.000000E+00
  3.906250E-01  3.125000E+00  0.000000E+00
  3.906250E-01  3.515625E+00  0.000000E+00
  3.906250E-01  3.906250E+00  0.000000E+00
  3.906250E-01  4.296875E+00  0.000000E+00
  3.906250E-01  4.687500E+00  0.000000E+00
  3.906250E-01  5.078125E+00  0.000000E+00
  3.906250E-01  5.468750E+00  0.000000E+00
  3.906250E-01  5.859375E+00  0.000000E+00
  3.906250E-01  6.250000E+00  0.000000E+00
  3.906250E-01  6.640625E+00  0.000000E+00
  3.906250E-01  7.031250E+00  0.000000E+00
  3.906250E-01  7.421875E+00  0.000000E+00
  3.906250E-01  7.812500E+00  0.000000E+00
  3.906250E-01  8.203125E+00  0.000000E+00
  3.906250E-01  8.593750E+00  0.000000E+00
  3.906250E-01  8.984375E+00  0.000000E+00
  3.906250E-01  9.375000E+00  0.000000E+00
  3.906250E-01  9.765625E+00  0.000000E+00
  3.906250E-01  1.015625E+01  0.000000E+00
  3.906250E-01  1.054688E+01  0.000000E+00
  3.906250E-01  1.093750E+01  0.000000E+00
  3.906250E-01  1.132812E+01  0.000000E+00
  3.906250E-01  1.171875E+01  0.000000E+00
  3.906250E-01  1.210938E+01  0.000000E+00
  3.906250E-01  1.250000E+01  0.000000E+00
  3.906250E-01  1.289062E+01  0.000000E+00
  3.906250E-01  1.328125E+01  0.000000E+00
  3.906250E-01  1.367188E+01  0.000000E+00
  3.906250E-01  1.406250E+01  0.000000E+00
  3.906250E-01  1.445312E+01  0.000000E+00
  3.906250E-01  1.484375E+01  0.000000E+00
  3.906250E-01  1.523438E+01  0.000000E+00
  3.906250E-01  1.562500E+01  0.000000E+00
  3.906250E-01  1.601562E+01  0.000000E+00
  3.906250E-01  1.640625E+01  0.000000E+00
  3.906250E-01  1.679688E+01  0.000000E+00
  3.906250E-01  1.718750E+01  0.000000E+00
  3.906250E-01  1.757812E+01  0.000000E+00
  3.906250E-01  1.796875E+01  0.000000E+00
  3.906250E-01  1.835938E+01  0.000000E+00
  3.906250E-01  1.875000E+01  0.000000E+00
  3.906250E-01  1.914062E+01  0.000000E+00
  3.906250E-01  1.953125E+01  0.000000E+00
  3.906250E-01  1.992188E+01  0.000000E+00
  3.906250E-01  2.031250E+01  0.000000E+00
  3.906250E-01  2.070312E+01  0.000000E+00
  3.906250E-01  2.109375E+01  0.000000E+00
  3.906250E-01  2.148438E+01  0.000000E+00
  3.906250E-01  2.187500E+01  0.000000E+00
  3.906250E-01  2.226562E+01  0.000000E+00
  3.906250E-01  2.265625E+01  0.000000E+00
  3.906250E-01  2.304688E+01  0.000000E+00
  3.906250E-01  2.343750E+01  0.000000E+00
  3.906250E-01  2.382812E+01  0.000000E+00
  3.906250E-01  2.421875E+01  0.000000E+00
  3.906250E-01  2.460938E+01  0.000000E+00
  7.812500E-01  0.000000E+00  0.000000E+00
  7.812500E-01  3.906250E-01  0.000000E+00
  7.812500E-01  7.812500E-01  0.000000E+00
  7.812500E-01  1.171875E+00  0.000000E+00
  7.812500E-01  1.562500E+00  0.000000E+00
  7.812500E-01  1.953125E+00  0.000000E+00
  7.812500E-01  2.343750E+00  0.000000E+00
  7.812500E-01  2.734375E+00  0.000000E+00
  7.812500E-01  3.125000E+00  0.000000E+00
  7.812500E-01  3.515625E+00  0.000000E+00
  7.812500E-01  3.906250E+00  0.000000E+00
  7.812500E-01  4.296875E+00  0.000000E+00
  7.812500E-01  4.687500E+00  0.000000E+00
  7.812500E-01  5.078125E+00  0.000000E+00
  7.812500E-01  5.468750E+00  0.000000E+00
  7.812500E-01  5.859375E+00  0.000000E+00
  7.812500E-01  6.250000E+00  0.000000E+00
  7.812500E-01  6.640625E+00  0.000000E+00
  7.812500E-01  7.031250E+00  0.000000E+00
  7.812500E-01  7.421875E+00  0.000000E+00
  7.812500E-01  7.812500E+00  0.000000E+00
  7.812500E-01  8.203125E+00  0.000000E+00
  7.812500E-01  8.593750E+00  0.000000E+00
  7.812500E-01  8.984375E+00  0.000000E+00
  7.812500E-01  9.375000E+00  0.000000E+00
  7.812500E-01  9.765625E+00  0.000000E+00
  7.812500E-01  1.015625E+01  0.000000E+00
  7.812500E-01  1.054688E+01  0.000000E+00
  7.812500E-01  1.093750E+01  0.000000E+00
  7.812500E-01  1.132812E+01  0.000000E+00
  7.812500E-01  1.171875E+01  0.000000E+00
  7.812500E-01  1.210938E+01  0.000000E+00
  7.812500E-01  1.250000E+01  0.000000E+00
  7.812500E-01  1.289062E+01  0.000000E+00
  7.812500E-01  1.328125E+01  0.000000E+00
  7.812500E-01  1.367188E+01  0.000000E+00
  7.812500E-01  1.406250E+01  0.000000E+00
  7.812500E-01  1.445312E+01  0.000000E+00
  7.812500E-01  1.484375E+01  0.000000E+00
  7.812500E-01  1.523438E+01  0.000000E+00
  7.812500E-01  1.562500E+01  0.000000E+00
  7.812500E-01  1.601562E+01  0.000000E+00
  7.812500E-01  1.640625E+01  0.000000E+00
  7.812500E-01  1.679688E+01  0.000000E+00
  7.812500E-01  1.718750E+01  0.000000E+00
  7.812500E-01  1.757812E+01  0.000000E+00
  7.812500E-01  1.796875E+01  0.000000E+00
  7.812500E-01  1.835938E+01  0.000000E+00
  7.812500E-01  1.875000E+01  0.000000E+00
  7.812500E-01  1.914062E+01  0.000000E+00
  7.812500E-01  1.953125E+01  0.000000E+00
  7.812500E-01  1.992188E+01  0.000000E+00
  7.812500E-01  2.031250E+01  0.000000E+00
  7.812500E-01  2.070312E+01  0.000000E+00
  7.812500E-01  2.109375E+01  0.000000E+00
  7.812500E-01  2.148438E+01  0.000000E+00
  7.812500E-01  2.187500E+01  0.000000E+00
  7.812500E-01  2.226562E+01  0.000000E+00
  7.812500E-01  2.265625E+01  0.000000E+00
  7.812500E-01  2.304688E+01  0.000000E+00
  7.812500E-01  2.343750E+01  0.000000E+00
  7.812500E-01  2.382812E+01  0.000000E+00
  7.812500E-01  2.421875E+01  0.000000E+00
  7.812500E-01  2.460938E+01  0.000000E+00
  1.171875E+00  0.000000E+00  0.000000E+00
  1.171875E+00  3.906250E-01  0.000000E+00
  1.171875E+00  7.812500E-01  0.000000E+00
  1.171875E+00  1.171875E+00  0.000000E+00
  1.171875E+00  1.562500E+00  0.000000E+00
  1.171875E+00  1.953125E+00  0.000000E+00
  1.171875E+00  2.343750E+00  0.000000E+00
  1.171875E+00  2.734375E+00  0.000000E+00
  1.171875E+00  3.125000E+00  0.000000E+00
  1.171875E+00  3.515625E+00  0.000000E+00
  1.171875E+00  3.906250E+00  0.000000E+00
  1.171875E+00  4.296875E+00  0.000000E+00
  1.171875E+00  4.687500E+00  0.000000E+00
  1.171875E+00  5.078125E+00  0.000000E+00
  1.171875E+00  5.468750E+00  0.000000E+00
  1.171875E+00  5.859375E+00  0.000000E+00
  1.171875E+00  6.250000E+00  0.000000E+00
  1.171875E+00  6.640625E+00  0.000000E+00
  1.171875E+00  7.031250E+00  0.000000E+00
  1.171875E+00  7.421875E+00  0.000000E+00
  1.171875E+00  7.812500E+00  0.000000E+00
  1.171875E+00  8.203125E+00  0.000000E+00
  1.171875E+00  8.593750E+00  0.000000E+00
  1.171875E+00  8.984375E+00  0.000000E+00
  1.171875E+00  9.375000E+00  0.000000E+00
  1.171875E+00  9.765625E+00  0.000000E+00
  1.171875E+00  1.015625E+01  0.000000E+00
  1.171875E+00  1.054688E+01  0.000000E+00
  1.171875E+00  1.093750E+01  0.000000E+00
  1.171875E+00  1.132812E+01  0.000000E+00
  1.171875E+00  1.171875E+01  0.000000E+00
  1.171875E+00  1.210938E+01  0.000000E+00
  1.171875E+00  1.250000E+01  0.000000E+00
  1.171875E+00  1.289062E+01  0.000000E+00
  1.171875E+00  1.328125E+01  0.000000E+00
  1.171875E+00  1.367188E+01  0.000000E+00
  1.171875E+00  1.406250E+01  0.000000E+00
  1.171875E+00  1.445312E+01  0.000000E+00
[...]
POINT_DATA   4096
SCALARS CON  float  1
LOOKUP_TABLE default
  4.713781E-01
  4.716760E-01
  4.778323E-01
  4.744912E-01
  4.749171E-01
  4.680912E-01
  4.701007E-01
  4.684706E-01
  4.746345E-01
  4.726020E-01
  4.744306E-01
  4.677734E-01
  4.680333E-01
  4.635748E-01
  4.680468E-01
  4.675436E-01
  4.739556E-01
  4.724708E-01
  4.754491E-01
  4.697578E-01
  4.699507E-01
  4.639947E-01
  4.654907E-01
  4.607249E-01
  4.625944E-01
  4.585597E-01
  4.630829E-01
  4.634996E-01
  4.717035E-01
  4.717847E-01
  4.751660E-01
  4.691803E-01
  4.698899E-01
  4.663319E-01
  4.716363E-01
  4.702301E-01
  4.731881E-01
  4.670807E-01
  4.669608E-01
  4.613914E-01
  4.640195E-01
  4.607450E-01
  4.637074E-01
  4.593797E-01
  4.616788E-01
  4.588232E-01
  4.652715E-01
  4.678464E-01
  4.776769E-01
  4.778068E-01
  4.789704E-01
  4.686880E-01
  4.646468E-01
  4.584747E-01
  4.655806E-01
  4.710834E-01
  4.834920E-01
  4.846913E-01
  4.865696E-01
  4.777778E-01
  4.750792E-01
  4.673930E-01
  4.686737E-01
  4.656516E-01
  4.715918E-01
  4.735796E-01
  4.813859E-01
  4.803760E-01
  4.798804E-01
  4.707477E-01
  4.682358E-01
  4.641027E-01
  4.689813E-01
  4.693682E-01
  4.740806E-01
  4.713512E-01
  4.727363E-01
  4.679265E-01
  4.688390E-01
  4.655179E-01
  4.697065E-01
  4.697349E-01
  4.746586E-01
  4.715152E-01
  4.713662E-01
  4.650153E-01
  4.655888E-01
  4.626807E-01
  4.663172E-01
  4.642521E-01
  4.672735E-01
  4.651600E-01
  4.695962E-01
  4.691314E-01
  4.735715E-01
  4.708907E-01
  4.722991E-01
  4.675980E-01
  4.686119E-01
  4.646294E-01
  4.667973E-01
  4.641174E-01
  4.673252E-01
  4.645764E-01
  4.660655E-01
  4.607622E-01
  4.606184E-01
  4.558171E-01
  4.580364E-01
  4.567578E-01
  4.633909E-01
  4.669112E-01
  4.765089E-01
  4.775655E-01
  4.785152E-01
  4.693466E-01
  4.660389E-01
  4.626333E-01
  4.715637E-01
  4.785090E-01
  4.886176E-01
  4.865424E-01
  4.840812E-01
  4.741783E-01
  4.717006E-01
  4.664733E-01
  4.685343E-01
  4.663331E-01
  4.639583E-01
  4.725844E-01
  4.817611E-01
  4.833182E-01
  4.800976E-01
  4.714794E-01
  4.662749E-01
  4.635499E-01
  4.667351E-01
  4.695124E-01
  4.733130E-01
  4.731507E-01
  4.730889E-01
  4.701532E-01
  4.693020E-01
  4.676155E-01
  4.692823E-01
  4.698957E-01
  4.721525E-01
  4.712248E-01
  4.709458E-01
  4.682237E-01
  4.676998E-01
  4.657307E-01
  4.659311E-01
  4.643201E-01
  4.649688E-01
  4.642975E-01
  4.659183E-01
  4.652254E-01
  4.655266E-01
  4.633853E-01
  4.638925E-01
  4.641139E-01
  4.674497E-01
  4.684389E-01
  4.695726E-01
  4.670440E-01
  4.658502E-01
  4.630086E-01
  4.622339E-01
  4.591365E-01
  4.575888E-01
  4.546603E-01
  4.553865E-01
  4.567903E-01
  4.627460E-01
  4.684671E-01
  4.756455E-01
  4.776554E-01
  4.767797E-01
  4.703596E-01
  4.660554E-01
  4.639780E-01
  4.695376E-01
  4.769085E-01
  4.853290E-01
  4.865217E-01
  4.831559E-01
  4.735564E-01
  4.652336E-01
  4.572618E-01
  4.552262E-01
  4.562154E-01
  4.635061E-01
  4.732338E-01
  4.797721E-01
  4.838884E-01
  4.778207E-01
  4.699288E-01
  4.601419E-01
  4.580632E-01
  4.588058E-01
  4.656785E-01
  4.701668E-01
  4.754409E-01
  4.747736E-01
  4.738749E-01
  4.686456E-01
  4.669945E-01
  4.653367E-01
  4.692915E-01
  4.713504E-01
  4.745306E-01
  4.722475E-01
  4.712162E-01
  4.678988E-01
  4.688761E-01
  4.679571E-01
  4.692189E-01
  4.663323E-01
  4.654567E-01
  4.625525E-01
  4.641763E-01
  4.645109E-01
  4.676546E-01
  4.666603E-01
  4.667048E-01
  4.631527E-01
  4.630410E-01
  4.619921E-01
  4.654892E-01
  4.666188E-01
  4.689076E-01
  4.656789E-01
  4.633195E-01
  4.586201E-01
  4.590526E-01
  4.593622E-01
  4.638801E-01
  4.659070E-01
  4.705375E-01
  4.718045E-01
  4.741042E-01
  4.708044E-01
  4.682392E-01
  4.638419E-01
  4.662311E-01
  4.704463E-01
  4.790982E-01
  4.820454E-01
  4.820402E-01
  4.744416E-01
  4.682776E-01
  4.609475E-01
  4.589025E-01
  4.564983E-01
  4.595762E-01
  4.598692E-01
  4.721296E-01
  4.759744E-01
  4.807854E-01
  4.721999E-01
  4.671025E-01
  4.568709E-01
  4.578937E-01
  4.569585E-01
  4.653680E-01
  4.671885E-01
  4.738064E-01
  4.709242E-01
  4.725807E-01
  4.668240E-01
  4.687589E-01
  4.658305E-01
  4.711385E-01
  4.700974E-01
  4.749398E-01
  4.715490E-01
  4.735613E-01
  4.680332E-01
  4.690009E-01
  4.634616E-01
  4.650849E-01
  4.605908E-01
  4.634094E-01
  4.601668E-01
  4.641011E-01
  4.615428E-01
  4.655398E-01
  4.625691E-01
  4.662762E-01
  4.635423E-01
  4.677744E-01
  4.652845E-01
  4.691844E-01
  4.657907E-01
  4.682204E-01
  4.629433E-01
  4.640577E-01
  4.595432E-01
  4.639091E-01
  4.636613E-01
  4.706804E-01
  4.697863E-01
  4.737640E-01
  4.695321E-01
  4.711334E-01
  4.653369E-01
  4.659381E-01
  4.605790E-01
  4.640170E-01
  4.635410E-01
  4.715910E-01
  4.724308E-01
  4.772431E-01
  4.716066E-01
  4.698071E-01
  4.601269E-01
  4.579603E-01
  4.519222E-01
  4.568889E-01
  4.648524E-01
  4.726864E-01
  4.727351E-01
  4.772992E-01
  4.689125E-01
  4.651575E-01
  4.543540E-01
  4.552602E-01
  4.531939E-01
  4.621900E-01
  4.642165E-01
  4.724438E-01
  4.697219E-01
  4.718571E-01
  4.648634E-01
  4.668956E-01
  4.641005E-01
  4.718550E-01
  4.723083E-01
  4.785285E-01
  4.735546E-01
  4.740258E-01
  4.662011E-01
  4.673103E-01
  4.619768E-01
  4.650781E-01
  4.603282E-01
  4.635108E-01
  4.601366E-01
  4.666647E-01
  4.669209E-01
  4.743295E-01
  4.708464E-01
  4.717086E-01
  4.632530E-01
  4.642397E-01
  4.609932E-01
  4.684835E-01
  4.683584E-01
  4.734457E-01
  4.673603E-01
  4.679470E-01
  4.628824E-01
  4.694378E-01
  4.705001E-01
  4.782003E-01
  4.742328E-01
  4.747573E-01
  4.664256E-01
  4.668201E-01
  4.605725E-01
  4.629301E-01
  4.586013E-01
  4.638706E-01
  4.630516E-01
  4.701626E-01
  4.676260E-01
  4.705635E-01
  4.645952E-01
  4.671449E-01
  4.630885E-01
  4.671934E-01
  4.630817E-01
  4.669875E-01
  4.638363E-01
  4.700500E-01
  4.697528E-01
  4.730729E-01
  4.670333E-01
  4.655138E-01
  4.586248E-01
  4.602936E-01
  4.585535E-01
  4.646446E-01
  4.647448E-01
  4.696541E-01
  4.664439E-01
  4.681655E-01
  4.641215E-01
  4.680120E-01
  4.677655E-01
  4.746077E-01
  4.745607E-01
  4.786984E-01
  4.741512E-01
  4.736728E-01
  4.657701E-01
  4.640016E-01
  4.573723E-01
  4.589749E-01
  4.566357E-01
  4.619576E-01
  4.619625E-01
  4.683130E-01
  4.681348E-01
  4.730103E-01
  4.701155E-01
  4.722382E-01
  4.682134E-01
  4.713439E-01
  4.692517E-01
  4.732570E-01
  4.698863E-01
  4.710590E-01
  4.651903E-01
  4.663347E-01
  4.638958E-01
  4.705178E-01
  4.722691E-01
  4.785811E-01
  4.749731E-01
  4.742631E-01
  4.664126E-01
  4.659337E-01
  4.610893E-01
  4.634021E-01
  4.598336E-01
  4.625659E-01
  4.597356E-01
  4.637807E-01
  4.622082E-01
  4.669152E-01
  4.652659E-01
  4.691884E-01
  4.659486E-01
  4.677525E-01
  4.630117E-01
  4.654393E-01
  4.670047E-01
  4.677343E-01
  4.676195E-01
  4.705811E-01
  4.690213E-01
  4.681885E-01
  4.637646E-01
  4.632392E-01
  4.620970E-01
  4.657200E-01
  4.671880E-01
  4.704695E-01
  4.688503E-01
  4.683069E-01
  4.649209E-01
  4.664548E-01
  4.683120E-01
  4.750480E-01
  4.782378E-01
  4.808662E-01
  4.764185E-01
  4.720537E-01
  4.646917E-01
  4.621033E-01
  4.593880E-01
  4.615036E-01
  4.616672E-01
  4.647997E-01
  4.656322E-01
  4.704986E-01
  4.734794E-01
  4.783927E-01
  4.774263E-01
  4.759124E-01
  4.703025E-01
  4.692697E-01
  4.686328E-01
  4.728215E-01
  4.733614E-01
  4.738465E-01
  4.690451E-01
  4.672658E-01
  4.656125E-01
  4.702249E-01
  4.731513E-01
  4.766636E-01
  4.735026E-01
  4.708101E-01
  4.657288E-01
  4.654471E-01
  4.638272E-01
  4.653157E-01
  4.640046E-01
  4.660102E-01
  4.656961E-01
  4.676289E-01
  4.652042E-01
  4.646397E-01
  4.623144E-01
  4.654000E-01
  4.676687E-01
  4.722924E-01
  4.714391E-01
  4.708377E-01
  4.618130E-01
  4.628113E-01
  4.651818E-01
  4.681726E-01
  4.703474E-01
  4.714863E-01
  4.714167E-01
  4.711020E-01
  4.708984E-01
  4.713508E-01
  4.716347E-01
  4.711979E-01
  4.693563E-01
  4.672789E-01
  4.662796E-01
  4.678767E-01
  4.714856E-01
  4.757820E-01
  4.783875E-01
  4.783249E-01
  4.752164E-01
  4.704001E-01
  4.650518E-01
  4.610945E-01
  4.594620E-01
  4.608019E-01
  4.638636E-01
  4.673001E-01
  4.695163E-01
  4.706607E-01
  4.709759E-01
  4.713154E-01
  4.715806E-01
  4.723747E-01
  4.736739E-01
  4.755725E-01
  4.766439E-01
  4.759244E-01
  4.727367E-01
  4.684991E-01
  4.647740E-01
  4.634127E-01
  4.643945E-01
  4.670450E-01
  4.693307E-01
  4.702019E-01
  4.692339E-01
  4.679805E-01
  4.674953E-01
  4.683866E-01
  4.693712E-01
  4.696621E-01
  4.687816E-01
  4.678340E-01
  4.672301E-01
  4.672826E-01
  4.671886E-01
  4.670790E-01
  4.669058E-01
  4.671911E-01
  4.672170E-01
  4.665809E-01
  4.647386E-01
  4.628225E-01
  4.621412E-01
  4.607957E-01
  4.634490E-01
  4.675197E-01
  4.720175E-01
  4.736652E-01
  4.737011E-01
  4.720208E-01
  4.716515E-01
  4.719008E-01
  4.735543E-01
  4.737222E-01
  4.726770E-01
  4.692754E-01
  4.667090E-01
  4.657490E-01
  4.687907E-01
  4.732291E-01
  4.775961E-01
  4.777796E-01
  4.745917E-01
  4.684954E-01
  4.639453E-01
  4.618692E-01
  4.641312E-01
  4.678449E-01
  4.719672E-01
  4.732472E-01
  4.731051E-01
  4.716886E-01
  4.718518E-01
  4.721386E-01
  4.728090E-01
  4.717445E-01
  4.710066E-01
  4.704016E-01
  4.716244E-01
  4.721040E-01
  4.717374E-01
  4.687713E-01
  4.659124E-01
  4.636671E-01
  4.644234E-01
  4.659883E-01
  4.678827E-01
  4.674323E-01
  4.666503E-01
  4.659837E-01
  4.679662E-01
  4.702907E-01
  4.723319E-01
  4.717147E-01
  4.710286E-01
  4.707874E-01
  4.727988E-01
  4.739076E-01
  4.734752E-01
  4.700400E-01
  4.672064E-01
  4.658367E-01
  4.674683E-01
  4.685908E-01
  4.683378E-01
  4.650399E-01
  4.573867E-01
  4.589171E-01
  4.620057E-01
  4.667441E-01
  4.707680E-01
  4.738812E-01
  4.745260E-01
  4.742734E-01
  4.732416E-01
  4.732944E-01
  4.731518E-01
  4.728052E-01
  4.705115E-01
  4.679211E-01
  4.656407E-01
  4.660846E-01
  4.682515E-01
  4.718351E-01
  4.739442E-01
  4.742838E-01
  4.716187E-01
  4.679525E-01
  4.639195E-01
  4.623381E-01
  4.633348E-01
  4.676674E-01
  4.723317E-01
  4.756527E-01
  4.749229E-01
  4.717101E-01
  4.671184E-01
  4.644168E-01
  4.637716E-01
  4.661957E-01
  4.696159E-01
  4.732340E-01
  4.740185E-01
  4.720423E-01
  4.671943E-01
  4.628815E-01
  4.602705E-01
  4.609784E-01
  4.627895E-01
  4.648869E-01
  4.651781E-01
  4.651366E-01
  4.651392E-01
  4.672950E-01
  4.702320E-01
  4.732950E-01
  4.736885E-01
  4.721887E-01
  4.693104E-01
  4.682089E-01
  4.688603E-01
  4.715646E-01
  4.735908E-01
  4.746827E-01
  4.735571E-01
  4.716905E-01
  4.684618E-01
  4.651783E-01
  4.612761E-01
  4.586895E-01
  4.604471E-01
  4.608292E-01
  4.620072E-01
  4.673534E-01
  4.700723E-01
  4.727849E-01
  4.706621E-01
  4.696491E-01
  4.671421E-01
  4.687069E-01
  4.692554E-01
  4.716247E-01
  4.697696E-01
  4.681608E-01
  4.638502E-01
  4.635720E-01
  4.641190E-01
  4.693527E-01
  4.723571E-01
  4.750352E-01
  4.717777E-01
  4.684368E-01
  4.632691E-01
  4.633187E-01
  4.648686E-01
  4.710671E-01
  4.746480E-01
  4.776943E-01
  4.750841E-01
  4.729039E-01
  4.687240E-01
  4.681112E-01
  4.661823E-01
  4.667431E-01
  4.651605E-01
  4.663140E-01
  4.656921E-01
  4.671540E-01
  4.654464E-01
  4.651589E-01
  4.627212E-01
  4.636885E-01
  4.637430E-01
  4.665141E-01
  4.663368E-01
  4.675015E-01
  4.664600E-01
  4.688641E-01
  4.699962E-01
  4.726589E-01
  4.706183E-01
  4.687312E-01
  4.649078E-01
  4.661831E-01
  4.683765E-01
  4.738377E-01
  4.752554E-01
  4.761301E-01
  4.731040E-01
  4.725599E-01
  4.705259E-01
  4.705929E-01
  4.670813E-01
  4.646653E-01
  4.588952E-01
  4.618385E-01
  4.626544E-01
  4.671828E-01
  4.681818E-01
  4.712542E-01
  4.694056E-01
  4.695821E-01
  4.664581E-01
  4.674680E-01
  4.660422E-01
  4.677088E-01
  4.652219E-01
  4.653735E-01
  4.628319E-01
  4.650224E-01
  4.655175E-01
  4.700144E-01
  4.709658E-01
  4.738951E-01
  4.715995E-01
  4.705293E-01
  4.650707E-01
  4.635005E-01
  4.612262E-01
  4.654032E-01
  4.683183E-01
  4.737833E-01
  4.729426E-01
  4.719331E-01
  4.659517E-01
  4.639630E-01
  4.611783E-01
  4.642452E-01
  4.655311E-01
  4.696384E-01
  4.684871E-01
  4.682240E-01
  4.635158E-01
  4.627055E-01
  4.605909E-01
  4.635146E-01
  4.638318E-01
  4.668301E-01
  4.657660E-01
  4.677845E-01
  4.671745E-01
  4.704225E-01
  4.700671E-01
  4.713629E-01
  4.673638E-01
  4.655008E-01
  4.611108E-01
  4.622259E-01
  4.628416E-01
  4.686127E-01
  4.715121E-01
  4.764591E-01
  4.758331E-01
  4.758172E-01
  4.703967E-01
  4.673285E-01
  4.616216E-01
  4.608574E-01
  4.648581E-01
  4.653143E-01
  4.647120E-01
  4.676927E-01
  4.682464E-01
  4.698912E-01
  4.673148E-01
  4.662114E-01
  4.631927E-01
  4.640592E-01
  4.637648E-01
  4.660645E-01
  4.650915E-01
  4.655486E-01
  4.634269E-01
  4.647820E-01
  4.655434E-01
  4.702863E-01
  4.728413E-01
  4.763030E-01
  4.745280E-01
  4.724603E-01
  4.667085E-01
  4.642662E-01
  4.618768E-01
  4.645429E-01
  4.661933E-01
  4.698707E-01
  4.695791E-01
  4.703612E-01
  4.683262E-01
  4.689785E-01
  4.672513E-01
  4.674476E-01
  4.647146E-01
  4.646389E-01
  4.631990E-01
  4.653403E-01
  4.654889E-01
  4.675804E-01
  4.664568E-01
  4.674328E-01
  4.663617E-01
  4.683025E-01
  4.679690E-01
  4.696450E-01
  4.683222E-01
  4.690550E-01
  4.670019E-01
  4.666954E-01
  4.632248E-01
  4.623051E-01
  4.605867E-01
  4.637738E-01
  4.663476E-01
  4.712036E-01
  4.717234E-01
  4.724608E-01
  4.696455E-01
  4.695237E-01
  4.678084E-01
  4.689595E-01
  4.673504E-01
  4.674615E-01
  4.661868E-01
  4.676758E-01
  4.671390E-01
  4.671902E-01
  4.671867E-01
  4.685355E-01
  4.687698E-01
  4.688125E-01
  4.672735E-01
  4.662854E-01
  4.646375E-01
  4.639528E-01
  4.629345E-01
  4.637297E-01
  4.651624E-01
  4.683347E-01
  4.706368E-01
  4.729122E-01
  4.737512E-01
  4.751098E-01
  4.750458E-01
  4.739615E-01
  4.695537E-01
  4.643173E-01
  4.591079E-01
  4.577364E-01
  4.591064E-01
  4.630491E-01
  4.654012E-01
  4.661789E-01
  4.643910E-01
  4.635268E-01
  4.635971E-01
  4.661846E-01
  4.683907E-01
  4.701746E-01
  4.692893E-01
  4.678953E-01
  4.657273E-01
  4.653302E-01
  4.652670E-01
  4.665332E-01
  4.669593E-01
  4.678782E-01
  4.678279E-01
  4.683948E-01
  4.677724E-01
  4.672050E-01
  4.651575E-01
  4.637413E-01
  4.622414E-01
  4.627920E-01
  4.637269E-01
  4.658654E-01
  4.668828E-01
  4.680375E-01
  4.679058E-01
  4.680940E-01
  4.667348E-01
  4.651972E-01
  4.625138E-01
  4.615421E-01
  4.617172E-01
  4.642731E-01
  4.748383E-01
  4.728854E-01
  4.702700E-01
  4.676816E-01
  4.672077E-01
  4.670768E-01
  4.676111E-01
  4.670601E-01
  4.668078E-01
  4.658528E-01
  4.655390E-01
  4.646246E-01
  4.646417E-01
  4.647894E-01
  4.665914E-01
  4.685392E-01
  4.713051E-01
  4.731139E-01
  4.750414E-01
  4.756629E-01
  4.757885E-01
  4.735205E-01
  4.700274E-01
  4.649689E-01
  4.612418E-01
  4.588933E-01
  4.593637E-01
  4.604923E-01
  4.624097E-01
  4.634351E-01
  4.652310E-01
  4.669117E-01
  4.692693E-01
  4.698989E-01
  4.693794E-01
  4.670792E-01
  4.658489E-01
  4.655708E-01
  4.672507E-01
  4.683273E-01
  4.690556E-01
  4.683733E-01
  4.685812E-01
  4.689993E-01
  4.702475E-01
  4.697184E-01
  4.679829E-01
  4.644386E-01
  4.618637E-01
  4.602990E-01
  4.615232E-01
  4.640485E-01
  4.682930E-01
  4.715698E-01
  4.734950E-01
  4.717144E-01
  4.677696E-01
  4.620372E-01
  4.579968E-01
  4.561531E-01
  4.584250E-01
  4.629068E-01
  4.690257E-01
  4.731456E-01
  4.768659E-01
  4.758750E-01
  4.723215E-01
  4.673381E-01
  4.654411E-01
  4.653660E-01
  4.677476E-01
  4.690032E-01
  4.699159E-01
  4.683696E-01
  4.666011E-01
  4.636269E-01
  4.626637E-01
  4.630678E-01
  4.667602E-01
  4.703030E-01
  4.733487E-01
  4.730227E-01
  4.722845E-01
  4.711636E-01
  4.721519E-01
  4.719390E-01
  4.703659E-01
  4.651558E-01
  4.601552E-01
  4.562970E-01
  4.567769E-01
  4.586627E-01
  4.614042E-01
  4.615916E-01
  4.617166E-01
  4.619178E-01
  4.653357E-01
  4.692981E-01
  4.733540E-01
  4.736509E-01
  4.719326E-01
  4.679086E-01
  4.654054E-01
  4.636265E-01
  4.643890E-01
  4.652226E-01
  4.674026E-01
  4.685505E-01
  4.698934E-01
  4.688324E-01
  4.669797E-01
  4.631729E-01
  4.608538E-01
  4.598078E-01
  4.626132E-01
  4.665839E-01
  4.714185E-01
  4.729161E-01
  4.719592E-01
  4.675829E-01
  4.636084E-01
  4.596179E-01
  4.578025E-01
  4.562397E-01
  4.572993E-01
  4.600721E-01
  4.664100E-01
  4.724386E-01
  4.823564E-01
  4.782740E-01
  4.732609E-01
  4.674376E-01
  4.651504E-01
  4.636615E-01
  4.647286E-01
  4.647560E-01
  4.659093E-01
  4.652068E-01
  4.652684E-01
  4.636883E-01
  4.638610E-01
  4.637722E-01
  4.661382E-01
  4.674442E-01
  4.693141E-01
  4.686275E-01
  4.687080E-01
  4.678414E-01
  4.690565E-01
  4.689240E-01
  4.690445E-01
  4.663787E-01
  4.645265E-01
  4.621246E-01
  4.624630E-01
  4.623484E-01
  4.636416E-01
  4.635826E-01
  4.656901E-01
  4.678593E-01
  4.719993E-01
  4.734586E-01
  4.734712E-01
  4.697638E-01
  4.671112E-01
  4.646252E-01
  4.651917E-01
  4.650274E-01
  4.659817E-01
  4.656987E-01
  4.677397E-01
  4.693269E-01
  4.715900E-01
  4.699407E-01
  4.667826E-01
  4.612269E-01
  4.586177E-01
  4.579635E-01
  4.618771E-01
  4.662222E-01
  4.716562E-01
  4.736174E-01
  4.737927E-01
  4.696355E-01
  4.651585E-01
  4.595482E-01
  4.572829E-01
  4.568901E-01
  4.614357E-01
  4.675132E-01
  4.757665E-01
  4.805733E-01
  4.774317E-01
  4.747715E-01
  4.721043E-01
  4.659846E-01
  4.643896E-01
  4.622914E-01
  4.645506E-01
  4.641405E-01
  4.658901E-01
  4.638660E-01
  4.640309E-01
  4.613225E-01
  4.623884E-01
  4.622465E-01
  4.662496E-01
  4.670264E-01
  4.684648E-01
  4.645897E-01
  4.630534E-01
  4.607296E-01
  4.642341E-01
  4.662272E-01
  4.696115E-01
  4.672143E-01
  4.659752E-01
  4.627193E-01
  4.646092E-01
  4.650765E-01
  4.677722E-01
  4.659164E-01
  4.663151E-01
  4.653166E-01
  4.695252E-01
  4.718836E-01
  4.756573E-01
  4.734507E-01
  4.713685E-01
  4.654571E-01
  4.633023E-01
  4.602234E-01
  4.620575E-01
  4.627022E-01
  4.670810E-01
  4.683040E-01
  4.707582E-01
  4.678521E-01
  4.657015E-01
  4.601765E-01
  4.589974E-01
  4.578384E-01
  4.623229E-01
  4.652348E-01
  4.700121E-01
  4.693138E-01
  4.690686E-01
  4.653397E-01
  4.657576E-01
  4.650331E-01
  4.677300E-01
  4.668430E-01
  4.682318E-01
  4.676036E-01
  4.717044E-01
  4.738724E-01
  4.754206E-01
  4.705479E-01
  4.706220E-01
  4.654443E-01
  4.663021E-01
  4.620477E-01
  4.633877E-01
  4.594613E-01
  4.614923E-01
  4.588026E-01
  4.623127E-01
  4.609528E-01
  4.653830E-01
  4.642467E-01
  4.678419E-01
  4.645632E-01
  4.652891E-01
  4.598814E-01
  4.607469E-01
  4.582235E-01
  4.633465E-01
  4.640923E-01
  4.697555E-01
  4.684275E-01
  4.714729E-01
  4.688940E-01
  4.721102E-01
  4.696854E-01
  4.721471E-01
  4.689731E-01
  4.722892E-01
  4.714814E-01
  4.762464E-01
  4.734675E-01
  4.732553E-01
  4.659356E-01
  4.650180E-01
  4.610578E-01
  4.645113E-01
  4.629822E-01
  4.666278E-01
  4.650190E-01
  4.698070E-01
  4.694798E-01
  4.731950E-01
  4.684197E-01
  4.666146E-01
  4.590986E-01
  4.591932E-01
  4.568983E-01
  4.622761E-01
  4.628660E-01
  4.683651E-01
  4.673900E-01
  4.711588E-01
  4.691837E-01
  4.728060E-01
  4.710432E-01
  4.746163E-01
  4.722769E-01
  4.752320E-01
  4.728466E-01
  4.761615E-01
  4.735852E-01
  4.666220E-01
  4.651703E-01
  4.692455E-01
  4.653949E-01
  4.676810E-01
  4.634378E-01
  4.659671E-01
  4.617295E-01
  4.639584E-01
  4.597484E-01
  4.628019E-01
  4.602195E-01
  4.653056E-01
  4.644242E-01
  4.698162E-01
  4.667309E-01
  4.676626E-01
  4.601891E-01
  4.600378E-01
  4.563806E-01
  4.628401E-01
  4.642177E-01
  4.709110E-01
  4.682434E-01
  4.706530E-01
  4.669931E-01
  4.715410E-01
  4.699129E-01
  4.736797E-01
  4.690169E-01
  4.705788E-01
  4.667368E-01
  4.711332E-01
  4.691861E-01
  4.726760E-01
  4.677349E-01
  4.683669E-01
  4.624268E-01
  4.640941E-01
  4.606303E-01
  4.654510E-01
  4.650274E-01
  4.716897E-01
  4.706477E-01
  4.739850E-01
  4.681820E-01
  4.677475E-01
  4.611148E-01
  4.628475E-01