# vtk DataFile Version 2.0
title
ASCII
DATASET STRUCTURED_GRID
DIMENSIONS   64   64    1
POINTS   4096  float
  0.000000E+00  0.000000E+00  0.000000E+00
  0.000000E+00  3.906250E-01  0.000000E+00
  0.000000E+00  7.812500E-01  0.000000E+00
  0.000000E+00  1.171875E+00  0.000000E+00
  0.000000E+00  1.562500E+00  0.000000E+00
  0.000000E+00  1.953125E+00  0.000000E+00
  0.000000E+00  2.343750E+00  0.000000E+00
  0.000000E+00  2.734375E+00  0.000000E+00
  0.000000E+00  3.125000E+00  0.000000E+00
  0.000000E+00  3.515625E+00  0.000000E+00
  0.000000E+00  3.906250E+00  0.000000E+00
  0.000000E+00  4.296875E+00  0.000000E+00
  0.000000E+00  4.687500E+00  0.000000E+00
  0.000000E+00  5.078125E+00  0.000000E+00
  0.000000E+00  5.468750E+00  0.000000E+00
  0.000000E+00  5.859375E+00  0.000000E+00
  0.000000E+00  6.250000E+00  0.000000E+00
  0.000000E+00  6.640625E+00  0.000000E+00
  0.000000E+00  7.031250E+00  0.000000E+00
  0.000000E+00  7.421875E+00  0.000000E+00
  0.000000E+00  7.812500E+00  0.000000E+00
  0.000000E+00  8.203125E+00  0.000000E+00
  0.000000E+00  8.593750E+00  0.000000E+00
  0.000000E+00  8.984375E+00  0.000000E+00
  0.000000E+00  9.375000E+00  0.000000E+00
  0.000000E+00  9.765625E+00  0.000000E+00
  0.000000E+00  1.015625E+01  0.000000E+00
  0.000000E+00  1.054688E+01  0.000000E+00
  0.000000E+00  1.093750E+01  0.000000E+00
  0.000000E+00  1.132812E+01  0.000000E+00
  0.000000E+00  1.171875E+01  0.000000E+00
  0.000000E+00  1.210938E+01  0.000000E+00
  0.000000E+00  1.250000E+01  0.000000E+00
  0.000000E+00  1.289062E+01  0.000000E+00
  0.000000E+00  1.328125E+01  0.000000E+00
  0.000000E+00  1.367188E+01  0.000000E+00
  0.000000E+00  1.406250E+01  0.000000E+00
  0.000000E+00  1.445312E+01  0.000000E+00
  0.000000E+00  1.484375E+01  0.000000E+00
  0.000000E+00  1.523438E+01  0.000000E+00
  0.000000E+00  1.562500E+01  0.000000E+00
  0.000000E+00  1.601562E+01  0.000000E+00
  0.000000E+00  1.640625E+01  0.000000E+00
  0.000000E+00  1.679688E+01  0.000000E+00
  0.000000E+00  1.718750E+01  0.000000E+00
  0.000000E+00  1.757812E+01  0.000000E+00
  0.000000E+00  1.796875E+01  0.000000E+00
  0.000000E+00  1.835938E+01  0.000000E+00
  0.000000E+00  1.875000E+01  0.000000E+00
  0.000000E+00  1.914062E+01  0.000000E+00
  0.000000E+00  1.953125E+01  0.000000E+00
  0.000000E+00  1.992188E+01  0.000000E+00
  0.000000E+00  2.031250E+01  0.000000E+00
  0.000000E+00  2.070312E+01  0.000000E+00
  0.000000E+00  2.109375E+01  0.000000E+00
  0.000000E+00  2.148438E+01  0.000000E+00
  0.000000E+00  2.187500E+01  0.000000E+00
  0.000000E+00  2.226562E+01  0.000000E+00
  0.000000E+00  2.265625E+01  0.000000E+00
  0.000000E+00  2.304688E+01  0.000000E+00
  0.000000E+00  2.343750E+01  0.000000E+00
  0.000000E+00  2.382812E+01  0.000000E+00
  0.000000E+00  2.421875E+01  0.000000E+00
  0.000000E+00  2.460938E+01  0.000000E+00
  3.906250E-01  0.000000E+00  0.000000E+00
  3.906250E-01  3.906250E-01  0.000000E+00
  3.906250E-01  7.812500E-01  0.000000E+00
  3.906250E-01  1.171875E+00  0.000000E+00
  3.906250E-01  1.562500E+00  0.000000E+00
  3.906250E-01  1.953125E+00  0.000000E+00
  3.906250E-01  2.343750E+00  0.000000E+00
  3.906250E-01  2.734375E+00  0.000000E+00
  3.906250E-01  3.125000E+00  0.000000E+00
  3.906250E-01  3.515625E+00  0.000000E+00
  3.906250E-01  3.906250E+00  0.000000E+00
  3.906250E-01  4.296875E+00  0.000000E+00
  3.906250E-01  4.687500E+00  0.000000E+00
  3.906250E-01  5.078125E+00  0.000000E+00
  3.906250E-01  5.468750E+00  0.000000E+00
  3.906250E-01  5.859375E+00  0.000000E+00
  3.906250E-01  6.250000E+00  0.000000E+00
  3.906250E-01  6.640625E+00  0.000000E+00
  3.906250E-01  7.031250E+00  0.000000E+00
  3.906250E-01  7.421875E+00  0.000000E+00
  3.906250E-01  7.812500E+00  0.000000E+00
  3.906250E-01  8.203125E+00  0.000000E+00
  3.906250E-01  8.593750E+00  0.000000E+00
  3.906250E-01  8.984375E+00  0.000000E+00
  3.906250E-01  9.375000E+00  0.000000E+00
  3.906250E-01  9.765625E+00  0.000000E+00
  3.906250E-01  1.015625E+01  0.000000E+00
  3.906250E-01  1.054688E+01  0.000000E+00
  3.906250E-01  1.093750E+01  0.000000E+00
  3.906250E-01  1.132812E+01  0.000000E+00
  3.906250E-01  1.171875E+01  0.000000E+00
  3.906250E-01  1.210938E+01  0.000000E+00
  3.906250E-01  1.250000E+01  0.000000E+00
  3.906250E-01  1.289062E+01  0.000000E+00
  3.906250E-01  1.328125E+01  0.000000E+00
  3.906250E-01  1.367188E+01  0.000000E+00
  3.906250E-01  1.406250E+01  0.000000E+00
  3.906250E-01  1.445312E+01  0.000000E+00
  3.906250E-01  1.484375E+01  0.000000E+00
  3.906250E-01  1.523438E+01  0.000000E+00
  3.906250E-01  1.562500E+01  0.000000E+00
  3.906250E-01  1.601562E+01  0.000000E+00
  3.906250E-01  1.640625E+01  0.000000E+00
  3.906250E-01  1.679688E+01  0.000000E+00
  3.906250E-01  1.718750E+01  0.000000E+00
  3.906250E-01  1.757812E+01  0.000000E+00
  3.906250E-01  1.796875E+01  0.000000E+00
  3.906250E-01  1.835938E+01  0.000000E+00
  3.906250E-01  1.875000E+01  0.000000E+00
  3.906250E-01  1.914062E+01  0.000000E+00
  3.906250E-01  1.953125E+01  0.000000E+00
  3.906250E-01  1.992188E+01  0.000000E+00
  3.906250E-01  2.031250E+01  0.000000E+00
  3.906250E-01  2.070312E+01  0.000000E+00
  3.906250E-01  2.109375E+01  0.000000E+00
  3.906250E-01  2.148438E+01  0.000000E+00
  3.906250E-01  2.187500E+01  0.000000E+00
  3.906250E-01  2.226562E+01  0.000000E+00
  3.906250E-01  2.265625E+01  0.000000E+00
  3.906250E-01  2.304688E+01  0.000000E+00
  3.906250E-01  2.343750E+01  0.000000E+00
  3.906250E-01  2.382812E+01  0.000000E+00
  3.906250E-01  2.421875E+01  0.000000E+00
  3.906250E-01  2.460938E+01  0.000000E+00
  7.812500E-01  0.000000E+00  0.000000E+00
  7.812500E-01  3.906250E-01  0.000000E+00
  7.812500E-01  7.812500E-01  0.000000E+00
  7.812500E-01  1.171875E+00  0.000000E+00
  7.812500E-01  1.562500E+00  0.000000E+00
  7.812500E-01  1.953125E+00  0.000000E+00
  7.812500E-01  2.343750E+00  0.000000E+00
  7.812500E-01  2.734375E+00  0.000000E+00
  7.812500E-01  3.125000E+00  0.000000E+00
  7.812500E-01  3.515625E+00  0.000000E+00
  7.812500E-01  3.906250E+00  0.000000E+00
  7.812500E-01  4.296875E+00  0.000000E+00
  7.812500E-01  4.687500E+00  0.000000E+00
  7.812500E-01  5.078125E+00  0.000000E+00
  7.812500E-01  5.468750E+00  0.000000E+00
  7.812500E-01  5.859375E+00  0.000000E+00
  7.812500E-01  6.250000E+00  0.000000E+00
  7.812500E-01  6.640625E+00  0.000000E+00
  7.812500E-01  7.031250E+00  0.000000E+00
  7.812500E-01  7.421875E+00  0.000000E+00
  7.812500E-01  7.812500E+00  0.000000E+00
  7.812500E-01  8.203125E+00  0.000000E+00
  7.812500E-01  8.593750E+00  0.000000E+00
  7.812500E-01  8.984375E+00  0.000000E+00
  7.812500E-01  9.375000E+00  0.000000E+00
  7.812500E-01  9.765625E+00  0.000000E+00
  7.812500E-01  1.015625E+01  0.000000E+00
  7.812500E-01  1.054688E+01  0.000000E+00
  7.812500E-01  1.093750E+01  0.000000E+00
  7.812500E-01  1.132812E+01  0.000000E+00
  7.812500E-01  1.171875E+01  0.000000E+00
  7.812500E-01  1.210938E+01  0.000000E+00
  7.812500E-01  1.250000E+01  0.000000E+00
  7.812500E-01  1.289062E+01  0.000000E+00
  7.812500E-01  1.328125E+01  0.000000E+00
  7.812500E-01  1.367188E+01  0.000000E+00
  7.812500E-01  1.406250E+01  0.000000E+00
  7.812500E-01  1.445312E+01  0.000000E+00
  7.812500E-01  1.484375E+01  0.000000E+00
  7.812500E-01  1.523438E+01  0.000000E+00
  7.812500E-01  1.562500E+01  0.000000E+00
  7.812500E-01  1.601562E+01  0.000000E+00
  7.812500E-01  1.640625E+01  0.000000E+00
  7.812500E-01  1.679688E+01  0.000000E+00
  7.812500E-01  1.718750E+01  0.000000E+00
  7.812500E-01  1.757812E+01  0.000000E+00
  7.812500E-01  1.796875E+01  0.000000E+00
  7.812500E-01  1.835938E+01  0.000000E+00
  7.812500E-01  1.875000E+01  0.000000E+00
  7.812500E-01  1.914062E+01  0.000000E+00
  7.812500E-01  1.953125E+01  0.000000E+00
  7.812500E-01  1.992188E+01  0.000000E+00
  7.812500E-01  2.031250E+01  0.000000E+00
  7.812500E-01  2.070312E+01  0.000000E+00
  7.812500E-01  2.109375E+01  0.000000E+00
  7.812500E-01  2.148438E+01  0.000000E+00
  7.812500E-01  2.187500E+01  0.000000E+00
  7.812500E-01  2.226562E+01  0.000000E+00
  7.812500E-01  2.265625E+01  0.000000E+00
  7.812500E-01  2.304688E+01  0.000000E+00
  7.812500E-01  2.343750E+01  0.000000E+00
  7.812500E-01  2.382812E+01  0.000000E+00
  7.812500E-01  2.421875E+01  0.000000E+00
  7.812500E-01  2.460938E+01  0.000000E+00
  1.171875E+00  0.000000E+00  0.000000E+00
  1.171875E+00  3.906250E-01  0.000000E+00
  1.171875E+00  7.812500E-01  0.000000E+00
  1.171875E+00  1.171875E+00  0.000000E+00
  1.171875E+00  1.562500E+00  0.000000E+00
  1.171875E+00  1.953125E+00  0.000000E+00
  1.171875E+00  2.343750E+00  0.000000E+00
  1.171875E+00  2.734375E+00  0.000000E+00
  1.171875E+00  3.125000E+00  0.000000E+00
  1.171875E+00  3.515625E+00  0.000000E+00
  1.171875E+00  3.906250E+00  0.000000E+00
  1.171875E+00  4.296875E+00  0.000000E+00
  1.171875E+00  4.687500E+00  0.000000E+00
  1.171875E+00  5.078125E+00  0.000000E+00
  1.171875E+00  5.468750E+00  0.000000E+00
  1.171875E+00  5.859375E+00  0.000000E+00
  1.171875E+00  6.250000E+00  0.000000E+00
  1.171875E+00  6.640625E+00  0.000000E+00
  1.171875E+00  7.031250E+00  0.000000E+00
  1.171875E+00  7.421875E+00  0.000000E+00
  1.171875E+00  7.812500E+00  0.000000E+00
  1.171875E+00  8.203125E+00  0.000000E+00
  1.171875E+00  8.593750E+00  0.000000E+00
  1.171875E+00  8.984375E+00  0.000000E+00
  1.171875E+00  9.375000E+00  0.000000E+00
  1.171875E+00  9.765625E+00  0.000000E+00
  1.171875E+00  1.015625E+01  0.000000E+00
  1.171875E+00  1.054688E+01  0.000000E+00
  1.171875E+00  1.093750E+01  0.000000E+00
  1.171875E+00  1.132812E+01  0.000000E+00
  1.171875E+00  1.171875E+01  0.000000E+00
  1.171875E+00  1.210938E+01  0.000000E+00
  1.171875E+00  1.250000E+01  0.000000E+00
  1.171875E+00  1.289062E+01  0.000000E+00
  1.171875E+00  1.328125E+01  0.000000E+00
  1.171875E+00  1.367188E+01  0.000000E+00
  1.171875E+00  1.406250E+01  0.000000E+00
  1.171875E+00  1.445312E+01  0.000000E+00
[...]
POINT_DATA   4096
SCALARS CON  float  1
LOOKUP_TABLE default
  4.713988E-01
  4.717899E-01
  4.780267E-01
  4.746113E-01
  4.750299E-01
  4.681347E-01
  4.701702E-01
  4.685001E-01
  4.747288E-01
  4.726982E-01
  4.745842E-01
  4.678410E-01
  4.680545E-01
  4.634996E-01
  4.680330E-01
  4.675684E-01
  4.740844E-01
  4.725609E-01
  4.755350E-01
  4.697605E-01
  4.699738E-01
  4.639618E-01
  4.654590E-01
  4.606004E-01
  4.624807E-01
  4.584365E-01
  4.630772E-01
  4.635330E-01
  4.718138E-01
  4.718502E-01
  4.752625E-01
  4.692459E-01
  4.700072E-01
  4.663975E-01
  4.717143E-01
  4.702574E-01
  4.732723E-01
  4.671359E-01
  4.670225E-01
  4.613402E-01
  4.639394E-01
  4.605931E-01
  4.635859E-01
  4.592063E-01
  4.615336E-01
  4.586673E-01
  4.652459E-01
  4.679095E-01
  4.778854E-01
  4.780041E-01
  4.791539E-01
  4.687251E-01
  4.646186E-01
  4.583555E-01
  4.655391E-01
  4.711359E-01
  4.837674E-01
  4.850666E-01
  4.870032E-01
  4.780383E-01
  4.751549E-01
  4.672219E-01
  4.684592E-01
  4.654720E-01
  4.716439E-01
  4.737284E-01
  4.815966E-01
  4.805223E-01
  4.800145E-01
  4.708200E-01
  4.682926E-01
  4.640787E-01
  4.689796E-01
  4.694089E-01
  4.742502E-01
  4.715224E-01
  4.728666E-01
  4.679251E-01
  4.688242E-01
  4.655077E-01
  4.697701E-01
  4.697630E-01
  4.746661E-01
  4.714538E-01
  4.713344E-01
  4.649733E-01
  4.655765E-01
  4.626169E-01
  4.662643E-01
  4.641832E-01
  4.672727E-01
  4.651684E-01
  4.696539E-01
  4.691745E-01
  4.736762E-01
  4.710076E-01
  4.724522E-01
  4.676613E-01
  4.686053E-01
  4.645295E-01
  4.667402E-01
  4.640896E-01
  4.673569E-01
  4.645482E-01
  4.660045E-01
  4.606210E-01
  4.604708E-01
  4.556119E-01
  4.578529E-01
  4.565975E-01
  4.633710E-01
  4.669786E-01
  4.766588E-01
  4.776571E-01
  4.785697E-01
  4.693199E-01
  4.660258E-01
  4.626150E-01
  4.716455E-01
  4.786851E-01
  4.889653E-01
  4.869458E-01
  4.844819E-01
  4.743932E-01
  4.717292E-01
  4.662962E-01
  4.683335E-01
  4.661941E-01
  4.639531E-01
  4.727296E-01
  4.819828E-01
  4.835230E-01
  4.802428E-01
  4.715375E-01
  4.662508E-01
  4.634641E-01
  4.666608E-01
  4.695144E-01
  4.734151E-01
  4.732851E-01
  4.731798E-01
  4.701625E-01
  4.692718E-01
  4.675870E-01
  4.692723E-01
  4.698735E-01
  4.721092E-01
  4.711701E-01
  4.709175E-01
  4.682259E-01
  4.677181E-01
  4.657241E-01
  4.658912E-01
  4.642577E-01
  4.649259E-01
  4.642883E-01
  4.659397E-01
  4.652448E-01
  4.655385E-01
  4.633873E-01
  4.638904E-01
  4.640828E-01
  4.673860E-01
  4.683605E-01
  4.695306E-01
  4.670436E-01
  4.658532E-01
  4.629448E-01
  4.620895E-01
  4.589392E-01
  4.573925E-01
  4.544802E-01
  4.552352E-01
  4.566808E-01
  4.627162E-01
  4.685179E-01
  4.757467E-01
  4.777389E-01
  4.768110E-01
  4.703272E-01
  4.659904E-01
  4.639175E-01
  4.695499E-01
  4.770488E-01
  4.856251E-01
  4.869099E-01
  4.835224E-01
  4.737661E-01
  4.652287E-01
  4.570706E-01
  4.549758E-01
  4.560416E-01
  4.635301E-01
  4.733890E-01
  4.799442E-01
  4.840720E-01
  4.779227E-01
  4.699666E-01
  4.600320E-01
  4.578681E-01
  4.585595E-01
  4.655551E-01
  4.701789E-01
  4.755855E-01
  4.748736E-01
  4.739022E-01
  4.685614E-01
  4.669143E-01
  4.652529E-01
  4.692628E-01
  4.713195E-01
  4.745528E-01
  4.722716E-01
  4.712808E-01
  4.679259E-01
  4.688962E-01
  4.679092E-01
  4.691613E-01
  4.662312E-01
  4.653881E-01
  4.624834E-01
  4.641652E-01
  4.645004E-01
  4.676785E-01
  4.666332E-01
  4.666417E-01
  4.629927E-01
  4.628796E-01
  4.618491E-01
  4.654529E-01
  4.666029E-01
  4.688972E-01
  4.655882E-01
  4.632175E-01
  4.584801E-01
  4.589309E-01
  4.592158E-01
  4.638037E-01
  4.658997E-01
  4.706476E-01
  4.719030E-01
  4.741568E-01
  4.707337E-01
  4.681409E-01
  4.637248E-01
  4.661862E-01
  4.704441E-01
  4.792062E-01
  4.822040E-01
  4.822544E-01
  4.745808E-01
  4.683300E-01
  4.608451E-01
  4.587405E-01
  4.563107E-01
  4.594996E-01
  4.598210E-01
  4.722445E-01
  4.761128E-01
  4.809824E-01
  4.722852E-01
  4.671177E-01
  4.567024E-01
  4.576801E-01
  4.566944E-01
  4.652369E-01
  4.671264E-01
  4.738694E-01
  4.709390E-01
  4.725972E-01
  4.667448E-01
  4.687107E-01
  4.657506E-01
  4.711520E-01
  4.701215E-01
  4.750631E-01
  4.716385E-01
  4.736769E-01
  4.680539E-01
  4.690182E-01
  4.633777E-01
  4.650033E-01
  4.604401E-01
  4.633250E-01
  4.600764E-01
  4.640896E-01
  4.614793E-01
  4.654992E-01
  4.624577E-01
  4.662084E-01
  4.634386E-01
  4.677507E-01
  4.652588E-01
  4.692439E-01
  4.657935E-01
  4.682184E-01
  4.628375E-01
  4.639897E-01
  4.594556E-01
  4.638949E-01
  4.636004E-01
  4.706780E-01
  4.697877E-01
  4.738893E-01
  4.696408E-01
  4.712438E-01
  4.652954E-01
  4.658459E-01
  4.603870E-01
  4.638793E-01
  4.634115E-01
  4.715975E-01
  4.724723E-01
  4.773725E-01
  4.716526E-01
  4.698062E-01
  4.599645E-01
  4.577706E-01
  4.516842E-01
  4.567722E-01
  4.648309E-01
  4.727804E-01
  4.728075E-01
  4.774309E-01
  4.689492E-01
  4.651590E-01
  4.541774E-01
  4.550352E-01
  4.528994E-01
  4.620385E-01
  4.641515E-01
  4.725349E-01
  4.697649E-01
  4.718949E-01
  4.647814E-01
  4.668454E-01
  4.640250E-01
  4.719043E-01
  4.723854E-01
  4.787167E-01
  4.736798E-01
  4.741446E-01
  4.661904E-01
  4.673048E-01
  4.618881E-01
  4.650143E-01
  4.601779E-01
  4.634076E-01
  4.600140E-01
  4.666558E-01
  4.669034E-01
  4.743824E-01
  4.708345E-01
  4.717312E-01
  4.631999E-01
  4.642366E-01
  4.609583E-01
  4.685410E-01
  4.683794E-01
  4.735116E-01
  4.673598E-01
  4.680176E-01
  4.629224E-01
  4.695248E-01
  4.704916E-01
  4.782301E-01
  4.742521E-01
  4.748979E-01
  4.665133E-01
  4.668746E-01
  4.604489E-01
  4.627834E-01
  4.583998E-01
  4.637730E-01
  4.629606E-01
  4.701749E-01
  4.676040E-01
  4.705785E-01
  4.644975E-01
  4.670294E-01
  4.628671E-01
  4.670232E-01
  4.629048E-01
  4.669423E-01
  4.637778E-01
  4.700934E-01
  4.698051E-01
  4.731786E-01
  4.670597E-01
  4.654909E-01
  4.584695E-01
  4.601313E-01
  4.583806E-01
  4.645852E-01
  4.647197E-01
  4.697033E-01
  4.664485E-01
  4.681826E-01
  4.640713E-01
  4.679859E-01
  4.677202E-01
  4.746669E-01
  4.746690E-01
  4.788988E-01
  4.742841E-01
  4.737552E-01
  4.657245E-01
  4.639498E-01
  4.572709E-01
  4.589030E-01
  4.565155E-01
  4.618881E-01
  4.618966E-01
  4.683276E-01
  4.681209E-01
  4.730245E-01
  4.700973E-01
  4.723003E-01
  4.682889E-01
  4.714910E-01
  4.693615E-01
  4.733818E-01
  4.699275E-01
  4.710907E-01
  4.651643E-01
  4.663814E-01
  4.639666E-01
  4.706630E-01
  4.723522E-01
  4.786560E-01
  4.749912E-01
  4.743381E-01
  4.664525E-01
  4.659648E-01
  4.609988E-01
  4.632820E-01
  4.596551E-01
  4.624478E-01
  4.596208E-01
  4.637491E-01
  4.621737E-01
  4.669328E-01
  4.652208E-01
  4.691257E-01
  4.657865E-01
  4.675987E-01
  4.628359E-01
  4.653539E-01
  4.670221E-01
  4.677589E-01
  4.676372E-01
  4.706046E-01
  4.690273E-01
  4.681605E-01
  4.636722E-01
  4.631124E-01
  4.619827E-01
  4.656869E-01
  4.672369E-01
  4.705660E-01
  4.689161E-01
  4.683132E-01
  4.648617E-01
  4.663806E-01
  4.682669E-01
  4.750921E-01
  4.783720E-01
  4.810521E-01
  4.765523E-01
  4.720801E-01
  4.646084E-01
  4.619870E-01
  4.592841E-01
  4.614309E-01
  4.615972E-01
  4.647453E-01
  4.656096E-01
  4.705348E-01
  4.735465E-01
  4.784754E-01
  4.775053E-01
  4.760048E-01
  4.703926E-01
  4.693550E-01
  4.686967E-01
  4.728811E-01
  4.734059E-01
  4.738822E-01
  4.690702E-01
  4.673182E-01
  4.656951E-01
  4.703287E-01
  4.732312E-01
  4.767261E-01
  4.735584E-01
  4.708736E-01
  4.657482E-01
  4.653921E-01
  4.636996E-01
  4.651915E-01
  4.639296E-01
  4.659952E-01
  4.656882E-01
  4.676053E-01
  4.651528E-01
  4.645865E-01
  4.622540E-01
  4.653394E-01
  4.675990E-01
  4.722402E-01
  4.714102E-01
  4.708446E-01
  4.617929E-01
  4.627787E-01
  4.651974E-01
  4.681886E-01
  4.703924E-01
  4.714844E-01
  4.714132E-01
  4.710782E-01
  4.709392E-01
  4.714127E-01
  4.717355E-01
  4.712493E-01
  4.693869E-01
  4.672423E-01
  4.662379E-01
  4.678041E-01
  4.714705E-01
  4.758225E-01
  4.785462E-01
  4.784995E-01
  4.753593E-01
  4.703939E-01
  4.649551E-01
  4.609258E-01
  4.593348E-01
  4.606962E-01
  4.638338E-01
  4.673043E-01
  4.696025E-01
  4.707484E-01
  4.710619E-01
  4.713277E-01
  4.716015E-01
  4.724118E-01
  4.737982E-01
  4.757067E-01
  4.767924E-01
  4.760098E-01
  4.727961E-01
  4.684780E-01
  4.647305E-01
  4.633329E-01
  4.643709E-01
  4.670508E-01
  4.694027E-01
  4.702664E-01
  4.693229E-01
  4.680331E-01
  4.675439E-01
  4.683724E-01
  4.693576E-01
  4.696316E-01
  4.687959E-01
  4.678196E-01
  4.672005E-01
  4.671890E-01
  4.671261E-01
  4.670516E-01
  4.669723E-01
  4.672641E-01
  4.672946E-01
  4.665904E-01
  4.647366E-01
  4.627794E-01
  4.621225E-01
  4.607221E-01
  4.634114E-01
  4.674933E-01
  4.720789E-01
  4.737324E-01
  4.737978E-01
  4.720671E-01
  4.717249E-01
  4.719680E-01
  4.736795E-01
  4.738101E-01
  4.727439E-01
  4.692394E-01
  4.666496E-01
  4.656518E-01
  4.687705E-01
  4.732647E-01
  4.777497E-01
  4.779358E-01
  4.747253E-01
  4.684820E-01
  4.638517E-01
  4.616992E-01
  4.640174E-01
  4.677639E-01
  4.719845E-01
  4.732974E-01
  4.732427E-01
  4.718262E-01
  4.720051E-01
  4.722128E-01
  4.728707E-01
  4.717615E-01
  4.710567E-01
  4.704189E-01
  4.716674E-01
  4.721222E-01
  4.717961E-01
  4.687884E-01
  4.659178E-01
  4.635886E-01
  4.643418E-01
  4.658825E-01
  4.678553E-01
  4.674493E-01
  4.667660E-01
  4.660881E-01
  4.680561E-01
  4.702785E-01
  4.723198E-01
  4.717107E-01
  4.711175E-01
  4.708589E-01
  4.728438E-01
  4.738476E-01
  4.734252E-01
  4.700107E-01
  4.672865E-01
  4.659369E-01
  4.676011E-01
  4.686617E-01
  4.683978E-01
  4.650284E-01
  4.572426E-01
  4.587712E-01
  4.619284E-01
  4.667362E-01
  4.708536E-01
  4.740002E-01
  4.746743E-01
  4.744099E-01
  4.733907E-01
  4.734138E-01
  4.732451E-01
  4.728297E-01
  4.705022E-01
  4.678686E-01
  4.655895E-01
  4.660221E-01
  4.682300E-01
  4.718555E-01
  4.740421E-01
  4.743959E-01
  4.717101E-01
  4.679482E-01
  4.638498E-01
  4.622192E-01
  4.632492E-01
  4.676282E-01
  4.723900E-01
  4.757834E-01
  4.751249E-01
  4.718893E-01
  4.672318E-01
  4.644139E-01
  4.637265E-01
  4.661551E-01
  4.696478E-01
  4.732943E-01
  4.740978E-01
  4.720926E-01
  4.672397E-01
  4.628800E-01
  4.602242E-01
  4.608496E-01
  4.626346E-01
  4.647343E-01
  4.651057E-01
  4.651333E-01
  4.652139E-01
  4.673798E-01
  4.703176E-01
  4.733407E-01
  4.737384E-01
  4.722362E-01
  4.693793E-01
  4.682400E-01
  4.688602E-01
  4.715312E-01
  4.736177E-01
  4.747921E-01
  4.737623E-01
  4.718913E-01
  4.686088E-01
  4.652073E-01
  4.612240E-01
  4.585593E-01
  4.602966E-01
  4.606676E-01
  4.618715E-01
  4.672994E-01
  4.701130E-01
  4.729038E-01
  4.707976E-01
  4.697647E-01
  4.672186E-01
  4.687659E-01
  4.693006E-01
  4.716571E-01
  4.697637E-01
  4.681162E-01
  4.637708E-01
  4.634923E-01
  4.640607E-01
  4.693437E-01
  4.723898E-01
  4.750940E-01
  4.718155E-01
  4.684321E-01
  4.632159E-01
  4.632588E-01
  4.648372E-01
  4.711000E-01
  4.747416E-01
  4.778435E-01
  4.752535E-01
  4.730602E-01
  4.688156E-01
  4.681279E-01
  4.661373E-01
  4.666847E-01
  4.651055E-01
  4.662687E-01
  4.656447E-01
  4.671253E-01
  4.654438E-01
  4.651807E-01
  4.627225E-01
  4.636405E-01
  4.636311E-01
  4.663775E-01
  4.662221E-01
  4.674614E-01
  4.664909E-01
  4.689312E-01
  4.700326E-01
  4.726466E-01
  4.705774E-01
  4.687202E-01
  4.649412E-01
  4.662512E-01
  4.684475E-01
  4.739244E-01
  4.753744E-01
  4.762957E-01
  4.732748E-01
  4.726955E-01
  4.705881E-01
  4.705895E-01
  4.670171E-01
  4.645574E-01
  4.587246E-01
  4.616877E-01
  4.625397E-01
  4.671419E-01
  4.681905E-01
  4.713081E-01
  4.694696E-01
  4.696673E-01
  4.665329E-01
  4.675224E-01
  4.660332E-01
  4.676566E-01
  4.651365E-01
  4.652995E-01
  4.627603E-01
  4.649700E-01
  4.654744E-01
  4.700138E-01
  4.709943E-01
  4.739502E-01
  4.716295E-01
  4.705300E-01
  4.650285E-01
  4.634577E-01
  4.611962E-01
  4.654293E-01
  4.683958E-01
  4.739207E-01
  4.730809E-01
  4.720273E-01
  4.659338E-01
  4.638533E-01
  4.610198E-01
  4.641325E-01
  4.654847E-01
  4.696545E-01
  4.684991E-01
  4.682189E-01
  4.634753E-01
  4.626565E-01
  4.605187E-01
  4.634395E-01
  4.637498E-01
  4.667779E-01
  4.657351E-01
  4.677857E-01
  4.671745E-01
  4.704276E-01
  4.700564E-01
  4.713566E-01
  4.673462E-01
  4.654877E-01
  4.610831E-01
  4.622122E-01
  4.628546E-01
  4.687065E-01
  4.716790E-01
  4.766798E-01
  4.760182E-01
  4.759255E-01
  4.703951E-01
  4.672579E-01
  4.614949E-01
  4.607101E-01
  4.648239E-01
  4.652629E-01
  4.646403E-01
  4.676398E-01
  4.682063E-01
  4.698815E-01
  4.673081E-01
  4.662151E-01
  4.631810E-01
  4.640481E-01
  4.637358E-01
  4.660331E-01
  4.650339E-01
  4.654801E-01
  4.633393E-01
  4.647195E-01
  4.655210E-01
  4.703415E-01
  4.729439E-01
  4.764294E-01
  4.746087E-01
  4.724825E-01
  4.666586E-01
  4.641971E-01
  4.618125E-01
  4.645266E-01
  4.662064E-01
  4.699117E-01
  4.696039E-01
  4.703656E-01
  4.682782E-01
  4.688992E-01
  4.671444E-01
  4.673597E-01
  4.646432E-01
  4.645957E-01
  4.631494E-01
  4.652934E-01
  4.654289E-01
  4.675342E-01
  4.664168E-01
  4.674268E-01
  4.663740E-01
  4.683438E-01
  4.680087E-01
  4.696931E-01
  4.683536E-01
  4.690759E-01
  4.669793E-01
  4.666461E-01
  4.631500E-01
  4.622497E-01
  4.605500E-01
  4.637815E-01
  4.663896E-01
  4.713006E-01
  4.718326E-01
  4.725482E-01
  4.696472E-01
  4.694606E-01
  4.677118E-01
  4.688992E-01
  4.673207E-01
  4.674544E-01
  4.662057E-01
  4.677194E-01
  4.671663E-01
  4.672187E-01
  4.671608E-01
  4.684969E-01
  4.687189E-01
  4.688191E-01
  4.672949E-01
  4.663129E-01
  4.645963E-01
  4.638819E-01
  4.628324E-01
  4.636608E-01
  4.650989E-01
  4.683197E-01
  4.706599E-01
  4.730369E-01
  4.739332E-01
  4.753297E-01
  4.751944E-01
  4.740285E-01
  4.695030E-01
  4.642198E-01
  4.589724E-01
  4.576337E-01
  4.590179E-01
  4.630074E-01
  4.653503E-01
  4.661280E-01
  4.642869E-01
  4.634136E-01
  4.634740E-01
  4.661315E-01
  4.683951E-01
  4.702552E-01
  4.693609E-01
  4.679431E-01
  4.656904E-01
  4.652565E-01
  4.651643E-01
  4.664934E-01
  4.669839E-01
  4.679968E-01
  4.679566E-01
  4.685131E-01
  4.678146E-01
  4.672163E-01
  4.651320E-01
  4.637384E-01
  4.622262E-01
  4.627838E-01
  4.636762E-01
  4.658164E-01
  4.668280E-01
  4.680335E-01
  4.679022E-01
  4.680830E-01
  4.666476E-01
  4.650819E-01
  4.623840E-01
  4.614779E-01
  4.616903E-01
  4.642975E-01
  4.749661E-01
  4.730271E-01
  4.703505E-01
  4.677399E-01
  4.671859E-01
  4.670533E-01
  4.675616E-01
  4.670566E-01
  4.667858E-01
  4.658522E-01
  4.654995E-01
  4.646102E-01
  4.646009E-01
  4.647715E-01
  4.665364E-01
  4.685219E-01
  4.713116E-01
  4.732371E-01
  4.752202E-01
  4.759004E-01
  4.759540E-01
  4.736162E-01
  4.699877E-01
  4.648815E-01
  4.610944E-01
  4.587690E-01
  4.592097E-01
  4.603610E-01
  4.622581E-01
  4.633478E-01
  4.651727E-01
  4.669316E-01
  4.692841E-01
  4.699419E-01
  4.693912E-01
  4.671240E-01
  4.658710E-01
  4.656106E-01
  4.672334E-01
  4.683095E-01
  4.690118E-01
  4.684006E-01
  4.686400E-01
  4.691233E-01
  4.703397E-01
  4.698073E-01
  4.680056E-01
  4.644512E-01
  4.618092E-01
  4.602432E-01
  4.614379E-01
  4.640191E-01
  4.682721E-01
  4.715976E-01
  4.734899E-01
  4.717060E-01
  4.676720E-01
  4.618859E-01
  4.577516E-01
  4.559338E-01
  4.582557E-01
  4.628874E-01
  4.690852E-01
  4.732898E-01
  4.769695E-01
  4.760234E-01
  4.724524E-01
  4.674408E-01
  4.654527E-01
  4.653423E-01
  4.677102E-01
  4.690261E-01
  4.699464E-01
  4.683896E-01
  4.665476E-01
  4.635642E-01
  4.626101E-01
  4.630788E-01
  4.667751E-01
  4.703231E-01
  4.733434E-01
  4.730652E-01
  4.723673E-01
  4.713059E-01
  4.722710E-01
  4.720252E-01
  4.703661E-01
  4.651131E-01
  4.600528E-01
  4.561837E-01
  4.566253E-01
  4.585182E-01
  4.612552E-01
  4.615019E-01
  4.616659E-01
  4.619322E-01
  4.653617E-01
  4.693630E-01
  4.734299E-01
  4.737731E-01
  4.720397E-01
  4.679908E-01
  4.653964E-01
  4.635699E-01
  4.642982E-01
  4.651899E-01
  4.674205E-01
  4.686326E-01
  4.699529E-01
  4.688602E-01
  4.669293E-01
  4.630968E-01
  4.607464E-01
  4.597316E-01
  4.625519E-01
  4.665764E-01
  4.714179E-01
  4.729369E-01
  4.719473E-01
  4.675569E-01
  4.635162E-01
  4.594851E-01
  4.576111E-01
  4.560714E-01
  4.571712E-01
  4.600427E-01
  4.664329E-01
  4.725252E-01
  4.825109E-01
  4.784066E-01
  4.733784E-01
  4.674762E-01
  4.651447E-01
  4.636079E-01
  4.646987E-01
  4.647222E-01
  4.658857E-01
  4.651404E-01
  4.652090E-01
  4.636400E-01
  4.638870E-01
  4.638252E-01
  4.662080E-01
  4.674511E-01
  4.692856E-01
  4.685592E-01
  4.686774E-01
  4.678343E-01
  4.690985E-01
  4.689537E-01
  4.690780E-01
  4.663776E-01
  4.645285E-01
  4.620831E-01
  4.623911E-01
  4.622076E-01
  4.635097E-01
  4.634945E-01
  4.657239E-01
  4.679595E-01
  4.721370E-01
  4.735437E-01
  4.735285E-01
  4.697760E-01
  4.671267E-01
  4.646012E-01
  4.651549E-01
  4.649563E-01
  4.659468E-01
  4.656917E-01
  4.677858E-01
  4.693492E-01
  4.715883E-01
  4.698748E-01
  4.667024E-01
  4.611012E-01
  4.584760E-01
  4.577848E-01
  4.617454E-01
  4.661585E-01
  4.717132E-01
  4.737235E-01
  4.739203E-01
  4.696910E-01
  4.651412E-01
  4.594165E-01
  4.571068E-01
  4.567037E-01
  4.613425E-01
  4.675053E-01
  4.758591E-01
  4.806926E-01
  4.775303E-01
  4.748404E-01
  4.722183E-01
  4.659956E-01
  4.643791E-01
  4.621822E-01
  4.644988E-01
  4.640756E-01
  4.658946E-01
  4.637887E-01
  4.639585E-01
  4.611975E-01
  4.623818E-01
  4.622797E-01
  4.663771E-01
  4.670619E-01
  4.684629E-01
  4.644641E-01
  4.629618E-01
  4.606154E-01
  4.642138E-01
  4.661908E-01
  4.696514E-01
  4.672206E-01
  4.660419E-01
  4.627228E-01
  4.646287E-01
  4.650041E-01
  4.677391E-01
  4.658622E-01
  4.663643E-01
  4.653516E-01
  4.696231E-01
  4.719324E-01
  4.757697E-01
  4.735175E-01
  4.714580E-01
  4.654236E-01
  4.632395E-01
  4.600675E-01
  4.619727E-01
  4.626312E-01
  4.671285E-01
  4.683287E-01
  4.708131E-01
  4.677987E-01
  4.656355E-01
  4.600090E-01
  4.588595E-01
  4.576664E-01
  4.622557E-01
  4.651890E-01
  4.700826E-01
  4.693704E-01
  4.691875E-01
  4.653956E-01
  4.658339E-01
  4.650115E-01
  4.677169E-01
  4.667622E-01
  4.682192E-01
  4.675719E-01
  4.717531E-01
  4.738926E-01
  4.755346E-01
  4.705946E-01
  4.706882E-01
  4.653958E-01
  4.662532E-01
  4.619141E-01
  4.633099E-01
  4.593388E-01
  4.614282E-01
  4.586780E-01
  4.622478E-01
  4.608611E-01
  4.653979E-01
  4.642560E-01
  4.679257E-01
  4.645611E-01
  4.652807E-01
  4.597586E-01
  4.606537E-01
  4.580837E-01
  4.632876E-01
  4.640050E-01
  4.697563E-01
  4.684172E-01
  4.715667E-01
  4.689511E-01
  4.721952E-01
  4.696604E-01
  4.721524E-01
  4.689551E-01
  4.723936E-01
  4.715765E-01
  4.763997E-01
  4.735361E-01
  4.733475E-01
  4.659361E-01
  4.650251E-01
  4.609502E-01
  4.644203E-01
  4.628474E-01
  4.666129E-01
  4.650317E-01
  4.699339E-01
  4.695591E-01
  4.732996E-01
  4.684203E-01
  4.666192E-01
  4.589887E-01
  4.590818E-01
  4.567064E-01
  4.621723E-01
  4.627889E-01
  4.684342E-01
  4.674628E-01
  4.713105E-01
  4.692747E-01
  4.729266E-01
  4.710606E-01
  4.746402E-01
  4.722204E-01
  4.752461E-01
  4.728419E-01
  4.762480E-01
  4.736361E-01
  4.666351E-01
  4.651786E-01
  4.692934E-01
  4.653815E-01
  4.676447E-01
  4.633222E-01
  4.658756E-01
  4.616381E-01
  4.639353E-01
  4.596957E-01
  4.627495E-01
  4.601075E-01
  4.652376E-01
  4.643712E-01
  4.698368E-01
  4.667205E-01
  4.676509E-01
  4.601083E-01
  4.599705E-01
  4.562788E-01
  4.627715E-01
  4.641243E-01
  4.708762E-01
  4.682265E-01
  4.707234E-01
  4.670607E-01
  4.716344E-01
  4.699495E-01
  4.737350E-01
  4.690427E-01
  4.706384E-01
  4.667544E-01
  4.711811E-01
  4.692293E-01
  4.727950E-01
  4.678307E-01
  4.684386E-01
  4.623686E-01
  4.639926E-01
  4.604922E-01
  4.654083E-01
  4.650478E-01
  4.718295E-01
  4.708046E-01
  4.741727E-01
  4.682818E-01
  4.677901E-01
  4.610388E-01
  4.627575E-01