# vtk DataFile Version 2.0
title
ASCII
DATASET STRUCTURED_GRID
DIMENSIONS   64   64    1
POINTS   4096  float
  0.000000E+00  0.000000E+00  0.000000E+00
  0.000000E+00  3.906250E-01  0.000000E+00
  0.000000E+00  7.812500E-01  0.000000E+00
  0.000000E+00  1.171875E+00  0.000000E+00
  0.000000E+00  1.562500E+00  0.000000E+00
  0.000000E+00  1.953125E+00  0.000000E+00
  0.000000E+00  2.343750E+00  0.000000E+00
  0.000000E+00  2.734375E+00  0.000000E+00
  0.000000E+00  3.125000E+00  0.000000E+00
  0.000000E+00  3.515625E+00  0.000000E+00
  0.000000E+00  3.906250E+00  0.000000E+00
  0.000000E+00  4.296875E+00  0.000000E+00
  0.000000E+00  4.687500E+00  0.000000E+00
  0.000000E+00  5.078125E+00  0.000000E+00
  0.000000E+00  5.468750E+00  0.000000E+00
  0.000000E+00  5.859375E+00  0.000000E+00
  0.000000E+00  6.250000E+00  0.000000E+00
  0.000000E+00  6.640625E+00  0.000000E+00
  0.000000E+00  7.031250E+00  0.000000E+00
  0.000000E+00  7.421875E+00  0.000000E+00
  0.000000E+00  7.812500E+00  0.000000E+00
  0.000000E+00  8.203125E+00  0.000000E+00
  0.000000E+00  8.593750E+00  0.000000E+00
  0.000000E+00  8.984375E+00  0.000000E+00
  0.000000E+00  9.375000E+00  0.000000E+00
  0.000000E+00  9.765625E+00  0.000000E+00
  0.000000E+00  1.015625E+01  0.000000E+00
  0.000000E+00  1.054688E+01  0.000000E+00
  0.000000E+00  1.093750E+01  0.000000E+00
  0.000000E+00  1.132812E+01  0.000000E+00
  0.000000E+00  1.171875E+01  0.000000E+00
  0.000000E+00  1.210938E+01  0.000000E+00
  0.000000E+00  1.250000E+01  0.000000E+00
  0.000000E+00  1.289062E+01  0.000000E+00
  0.000000E+00  1.328125E+01  0.000000E+00
  0.000000E+00  1.367188E+01  0.000000E+00
  0.000000E+00  1.406250E+01  0.000000E+00
  0.000000E+00  1.445312E+01  0.000000E+00
  0.000000E+00  1.484375E+01  0.000000E+00
  0.000000E+00  1.523438E+01  0.000000E+00
  0.000000E+00  1.562500E+01  0.000000E+00
  0.000000E+00  1.601562E+01  0.000000E+00
  0.000000E+00  1.640625E+01  0.000000E+00
  0.000000E+00  1.679688E+01  0.000000E+00
  0.000000E+00  1.718750E+01  0.000000E+00
  0.000000E+00  1.757812E+01  0.000000E+00
  0.000000E+00  1.796875E+01  0.000000E+00
  0.000000E+00  1.835938E+01  0.000000E+00
  0.000000E+00  1.875000E+01  0.000000E+00
  0.000000E+00  1.914062E+01  0.000000E+00
  0.000000E+00  1.953125E+01  0.000000E+00
  0.000000E+00  1.992188E+01  0.000000E+00
  0.000000E+00  2.031250E+01  0.000000E+00
  0.000000E+00  2.070312E+01  0.000000E+00
  0.000000E+00  2.109375E+01  0.000000E+00
  0.000000E+00  2.148438E+01  0.000000E+00
  0.000000E+00  2.187500E+01  0.000000E+00
  0.000000E+00  2.226562E+01  0.000000E+00
  0.000000E+00  2.265625E+01  0.000000E+00
  0.000000E+00  2.304688E+01  0.000000E+00
  0.000000E+00  2.343750E+01  0.000000E+00
  0.000000E+00  2.382812E+01  0.000000E+00
  0.000000E+00  2.421875E+01  0.000000E+00
  0.000000E+00  2.460938E+01  0.000000E+00
  3.906250E-01  0.000000E+00  0.000000E+00
  3.906250E-01  3.906250E-01  0.000000E+00
  3.906250E-01  7.812500E-01  0.000000E+00
  3.906250E-01  1.171875E+00  0.000000E+00
  3.906250E-01  1.562500E+00  0.000000E+00
  3.906250E-01  1.953125E+00  0.000000E+00
  3.906250E-01  2.343750E+00  0.000000E+00
  3.906250E-01  2.734375E+00  0.000000E+00
  3.906250E-01  3.125000E+00  0.000000E+00
  3.906250E-01  3.515625E+00  0.000000E+00
  3.906250E-01  3.906250E+00  0.000000E+00
  3.906250E-01  4.296875E+00  0.000000E+00
  3.906250E-01  4.687500E+00  0.000000E+00
  3.906250E-01  5.078125E+00  0.000000E+00
  3.906250E-01  5.468750E+00  0.000000E+00
  3.906250E-01  5.859375E+00  0.000000E+00
  3.906250E-01  6.250000E+00  0.000000E+00
  3.906250E-01  6.640625E+00  0.000000E+00
  3.906250E-01  7.031250E+00  0.000000E+00
  3.906250E-01  7.421875E+00  0.000000E+00
  3.906250E-01  7.812500E+00  0.000000E+00
  3.906250E-01  8.203125E+00  0.000000E+00
  3.906250E-01  8.593750E+00  0.000000E+00
  3.906250E-01  8.984375E+00  0.000000E+00
  3.906250E-01  9.375000E+00  0.000000E+00
  3.906250E-01  9.765625E+00  0.000000E+00
  3.906250E-01  1.015625E+01  0.000000E+00
  3.906250E-01  1.054688E+01  0.000000E+00
  3.906250E-01  1.093750E+01  0.000000E+00
  3.906250E-01  1.132812E+01  0.000000E+00
  3.906250E-01  1.171875E+01  0.000000E+00
  3.906250E-01  1.210938E+01  0.000000E+00
  3.906250E-01  1.250000E+01  0.000000E+00
  3.906250E-01  1.289062E+01  0.000000E+00
  3.906250E-01  1.328125E+01  0.000000E+00
  3.906250E-01  1.367188E+01  0.000000E+00
  3.906250E-01  1.406250E+01  0.000000E+00
  3.906250E-01  1.445312E+01  0.000000E+00
  3.906250E-01  1.484375E+01  0.000000E+00
  3.906250E-01  1.523438E+01  0.000000E+00
  3.906250E-01  1.562500E+01  0.000000E+00
  3.906250E-01  1.601562E+01  0.000000E+00
  3.906250E-01  1.640625E+01  0.000000E+00
  3.906250E-01  1.679688E+01  0.000000E+00
  3.906250E-01  1.718750E+01  0.000000E+00
  3.906250E-01  1.757812E+01  0.000000E+00
  3.906250E-01  1.796875E+01  0.000000E+00
  3.906250E-01  1.835938E+01  0.000000E+00
  3.906250E-01  1.875000E+01  0.000000E+00
  3.906250E-01  1.914062E+01  0.000000E+00
  3.906250E-01  1.953125E+01  0.000000E+00
  3.906250E-01  1.992188E+01  0.000000E+00
  3.906250E-01  2.031250E+01  0.000000E+00
  3.906250E-01  2.070312E+01  0.000000E+00
  3.906250E-01  2.109375E+01  0.000000E+00
  3.906250E-01  2.148438E+01  0.000000E+00
  3.906250E-01  2.187500E+01  0.000000E+00
  3.906250E-01  2.226562E+01  0.000000E+00
  3.906250E-01  2.265625E+01  0.000000E+00
  3.906250E-01  2.304688E+01  0.000000E+00
  3.906250E-01  2.343750E+01  0.000000E+00
  3.906250E-01  2.382812E+01  0.000000E+00
  3.906250E-01  2.421875E+01  0.000000E+00
  3.906250E-01  2.460938E+01  0.000000E+00
  7.812500E-01  0.000000E+00  0.000000E+00
  7.812500E-01  3.906250E-01  0.000000E+00
  7.812500E-01  7.812500E-01  0.000000E+00
  7.812500E-01  1.171875E+00  0.000000E+00
  7.812500E-01  1.562500E+00  0.000000E+00
  7.812500E-01  1.953125E+00  0.000000E+00
  7.812500E-01  2.343750E+00  0.000000E+00
  7.812500E-01  2.734375E+00  0.000000E+00
  7.812500E-01  3.125000E+00  0.000000E+00
  7.812500E-01  3.515625E+00  0.000000E+00
  7.812500E-01  3.906250E+00  0.000000E+00
  7.812500E-01  4.296875E+00  0.000000E+00
  7.812500E-01  4.687500E+00  0.000000E+00
  7.812500E-01  5.078125E+00  0.000000E+00
  7.812500E-01  5.468750E+00  0.000000E+00
  7.812500E-01  5.859375E+00  0.000000E+00
  7.812500E-01  6.250000E+00  0.000000E+00
  7.812500E-01  6.640625E+00  0.000000E+00
  7.812500E-01  7.031250E+00  0.000000E+00
  7.812500E-01  7.421875E+00  0.000000E+00
  7.812500E-01  7.812500E+00  0.000000E+00
  7.812500E-01  8.203125E+00  0.000000E+00
  7.812500E-01  8.593750E+00  0.000000E+00
  7.812500E-01  8.984375E+00  0.000000E+00
  7.812500E-01  9.375000E+00  0.000000E+00
  7.812500E-01  9.765625E+00  0.000000E+00
  7.812500E-01  1.015625E+01  0.000000E+00
  7.812500E-01  1.054688E+01  0.000000E+00
  7.812500E-01  1.093750E+01  0.000000E+00
  7.812500E-01  1.132812E+01  0.000000E+00
  7.812500E-01  1.171875E+01  0.000000E+00
  7.812500E-01  1.210938E+01  0.000000E+00
  7.812500E-01  1.250000E+01  0.000000E+00
  7.812500E-01  1.289062E+01  0.000000E+00
  7.812500E-01  1.328125E+01  0.000000E+00
  7.812500E-01  1.367188E+01  0.000000E+00
  7.812500E-01  1.406250E+01  0.000000E+00
  7.812500E-01  1.445312E+01  0.000000E+00
  7.812500E-01  1.484375E+01  0.000000E+00
  7.812500E-01  1.523438E+01  0.000000E+00
  7.812500E-01  1.562500E+01  0.000000E+00
  7.812500E-01  1.601562E+01  0.000000E+00
  7.812500E-01  1.640625E+01  0.000000E+00
  7.812500E-01  1.679688E+01  0.000000E+00
  7.812500E-01  1.718750E+01  0.000000E+00
  7.812500E-01  1.757812E+01  0.000000E+00
  7.812500E-01  1.796875E+01  0.000000E+00
  7.812500E-01  1.835938E+01  0.000000E+00
  7.812500E-01  1.875000E+01  0.000000E+00
  7.812500E-01  1.914062E+01  0.000000E+00
  7.812500E-01  1.953125E+01  0.000000E+00
  7.812500E-01  1.992188E+01  0.000000E+00
  7.812500E-01  2.031250E+01  0.000000E+00
  7.812500E-01  2.070312E+01  0.000000E+00
  7.812500E-01  2.109375E+01  0.000000E+00
  7.812500E-01  2.148438E+01  0.000000E+00
  7.812500E-01  2.187500E+01  0.000000E+00
  7.812500E-01  2.226562E+01  0.000000E+00
  7.812500E-01  2.265625E+01  0.000000E+00
  7.812500E-01  2.304688E+01  0.000000E+00
  7.812500E-01  2.343750E+01  0.000000E+00
  7.812500E-01  2.382812E+01  0.000000E+00
  7.812500E-01  2.421875E+01  0.000000E+00
  7.812500E-01  2.460938E+01  0.000000E+00
  1.171875E+00  0.000000E+00  0.000000E+00
  1.171875E+00  3.906250E-01  0.000000E+00
  1.171875E+00  7.812500E-01  0.000000E+00
  1.171875E+00  1.171875E+00  0.000000E+00
  1.171875E+00  1.562500E+00  0.000000E+00
  1.171875E+00  1.953125E+00  0.000000E+00
  1.171875E+00  2.343750E+00  0.000000E+00
  1.171875E+00  2.734375E+00  0.000000E+00
  1.171875E+00  3.125000E+00  0.000000E+00
  1.171875E+00  3.515625E+00  0.000000E+00
  1.171875E+00  3.906250E+00  0.000000E+00
  1.171875E+00  4.296875E+00  0.000000E+00
  1.171875E+00  4.687500E+00  0.000000E+00
  1.171875E+00  5.078125E+00  0.000000E+00
  1.171875E+00  5.468750E+00  0.000000E+00
  1.171875E+00  5.859375E+00  0.000000E+00
  1.171875E+00  6.250000E+00  0.000000E+00
  1.171875E+00  6.640625E+00  0.000000E+00
  1.171875E+00  7.031250E+00  0.000000E+00
  1.171875E+00  7.421875E+00  0.000000E+00
  1.171875E+00  7.812500E+00  0.000000E+00
  1.171875E+00  8.203125E+00  0.000000E+00
  1.171875E+00  8.593750E+00  0.000000E+00
  1.171875E+00  8.984375E+00  0.000000E+00
  1.171875E+00  9.375000E+00  0.000000E+00
  1.171875E+00  9.765625E+00  0.000000E+00
  1.171875E+00  1.015625E+01  0.000000E+00
  1.171875E+00  1.054688E+01  0.000000E+00
  1.171875E+00  1.093750E+01  0.000000E+00
  1.171875E+00  1.132812E+01  0.000000E+00
  1.171875E+00  1.171875E+01  0.000000E+00
  1.171875E+00  1.210938E+01  0.000000E+00
  1.171875E+00  1.250000E+01  0.000000E+00
  1.171875E+00  1.289062E+01  0.000000E+00
  1.171875E+00  1.328125E+01  0.000000E+00
  1.171875E+00  1.367188E+01  0.000000E+00
  1.171875E+00  1.406250E+01  0.000000E+00
  1.171875E+00  1.445312E+01  0.000000E+00
[...]
POINT_DATA   4096
SCALARS CON  float  1
LOOKUP_TABLE default
  4.714704E-01
  4.733353E-01
  4.812106E-01
  4.768552E-01
  4.770795E-01
  4.687198E-01
  4.710169E-01
  4.688108E-01
  4.762850E-01
  4.742650E-01
  4.769727E-01
  4.688441E-01
  4.685151E-01
  4.624830E-01
  4.678168E-01
  4.676047E-01
  4.756709E-01
  4.737277E-01
  4.770078E-01
  4.700393E-01
  4.704854E-01
  4.633577E-01
  4.648382E-01
  4.585933E-01
  4.607958E-01
  4.565434E-01
  4.629128E-01
  4.638954E-01
  4.736086E-01
  4.732054E-01
  4.772131E-01
  4.703989E-01
  4.716498E-01
  4.671140E-01
  4.728828E-01
  4.708101E-01
  4.746988E-01
  4.678559E-01
  4.677720E-01
  4.603591E-01
  4.626040E-01
  4.580125E-01
  4.613811E-01
  4.561536E-01
  4.590687E-01
  4.560778E-01
  4.647207E-01
  4.687746E-01
  4.812228E-01
  4.812685E-01
  4.822013E-01
  4.692718E-01
  4.640392E-01
  4.562859E-01
  4.647743E-01
  4.719752E-01
  4.884092E-01
  4.914687E-01
  4.943424E-01
  4.824109E-01
  4.765163E-01
  4.647052E-01
  4.652935E-01
  4.626125E-01
  4.722604E-01
  4.758857E-01
  4.851880E-01
  4.833934E-01
  4.825777E-01
  4.718634E-01
  4.688369E-01
  4.634752E-01
  4.690808E-01
  4.701739E-01
  4.768735E-01
  4.740463E-01
  4.750169E-01
  4.681892E-01
  4.687897E-01
  4.650994E-01
  4.703388E-01
  4.699457E-01
  4.749925E-01
  4.708510E-01
  4.710688E-01
  4.641969E-01
  4.651589E-01
  4.614081E-01
  4.653732E-01
  4.629872E-01
  4.670884E-01
  4.650817E-01
  4.706028E-01
  4.701579E-01
  4.757587E-01
  4.729710E-01
  4.746568E-01
  4.683115E-01
  4.684422E-01
  4.631113E-01
  4.659918E-01
  4.635060E-01
  4.676297E-01
  4.639600E-01
  4.650609E-01
  4.582608E-01
  4.578217E-01
  4.519461E-01
  4.546925E-01
  4.538936E-01
  4.629767E-01
  4.680569E-01
  4.793664E-01
  4.796033E-01
  4.798183E-01
  4.688187E-01
  4.654486E-01
  4.619068E-01
  4.728006E-01
  4.816158E-01
  4.949302E-01
  4.938566E-01
  4.912500E-01
  4.779031E-01
  4.722008E-01
  4.635729E-01
  4.653574E-01
  4.639978E-01
  4.636245E-01
  4.749938E-01
  4.858975E-01
  4.873797E-01
  4.829456E-01
  4.724247E-01
  4.656708E-01
  4.620546E-01
  4.656494E-01
  4.696611E-01
  4.749702E-01
  4.752907E-01
  4.747027E-01
  4.705849E-01
  4.690540E-01
  4.671540E-01
  4.689867E-01
  4.694490E-01
  4.715657E-01
  4.705336E-01
  4.706169E-01
  4.681860E-01
  4.677944E-01
  4.653901E-01
  4.651527E-01
  4.632412E-01
  4.642242E-01
  4.640554E-01
  4.662599E-01
  4.656928E-01
  4.659901E-01
  4.635369E-01
  4.637404E-01
  4.633916E-01
  4.664194E-01
  4.674032E-01
  4.691372E-01
  4.670163E-01
  4.657047E-01
  4.618077E-01
  4.598665E-01
  4.558652E-01
  4.541704E-01
  4.513628E-01
  4.526100E-01
  4.548082E-01
  4.622379E-01
  4.694926E-01
  4.777963E-01
  4.796290E-01
  4.776928E-01
  4.697434E-01
  4.645401E-01
  4.624680E-01
  4.695233E-01
  4.794589E-01
  4.909034E-01
  4.937464E-01
  4.897798E-01
  4.770987E-01
  4.649172E-01
  4.538021E-01
  4.508534E-01
  4.530657E-01
  4.636826E-01
  4.759091E-01
  4.830469E-01
  4.875369E-01
  4.797800E-01
  4.704356E-01
  4.580075E-01
  4.547944E-01
  4.549109E-01
  4.638421E-01
  4.703052E-01
  4.777532E-01
  4.765129E-01
  4.746994E-01
  4.675476E-01
  4.657502E-01
  4.637788E-01
  4.687029E-01
  4.707977E-01
  4.749499E-01
  4.725986E-01
  4.722485E-01
  4.682935E-01
  4.692694E-01
  4.672275E-01
  4.683858E-01
  4.646842E-01
  4.642969E-01
  4.612763E-01
  4.639681E-01
  4.643935E-01
  4.682058E-01
  4.662469E-01
  4.656951E-01
  4.605736E-01
  4.605627E-01
  4.596575E-01
  4.647411E-01
  4.661186E-01
  4.687874E-01
  4.644227E-01
  4.618622E-01
  4.562151E-01
  4.568569E-01
  4.568247E-01
  4.626948E-01
  4.658044E-01
  4.723681E-01
  4.734754E-01
  4.751951E-01
  4.697290E-01
  4.664513E-01
  4.614517E-01
  4.651553E-01
  4.703888E-01
  4.813241E-01
  4.852980E-01
  4.862148E-01
  4.770052E-01
  4.690234E-01
  4.587859E-01
  4.557499E-01
  4.529660E-01
  4.580144E-01
  4.589564E-01
  4.743174E-01
  4.786651E-01
  4.844185E-01
  4.735318E-01
  4.670643E-01
  4.537168E-01
  4.542672E-01
  4.525501E-01
  4.632140E-01
  4.660474E-01
  4.748841E-01
  4.712412E-01
  4.730393E-01
  4.655114E-01
  4.679096E-01
  4.643068E-01
  4.712211E-01
  4.702527E-01
  4.768298E-01
  4.729012E-01
  4.755948E-01
  4.685019E-01
  4.694648E-01
  4.621164E-01
  4.638942E-01
  4.582212E-01
  4.621295E-01
  4.585083E-01
  4.637122E-01
  4.602811E-01
  4.648695E-01
  4.606766E-01
  4.651494E-01
  4.617733E-01
  4.674848E-01
  4.648394E-01
  4.700738E-01
  4.655933E-01
  4.681845E-01
  4.613124E-01
  4.631267E-01
  4.580279E-01
  4.636239E-01
  4.626878E-01
  4.709241E-01
  4.699058E-01
  4.757164E-01
  4.709229E-01
  4.726629E-01
  4.643867E-01
  4.642677E-01
  4.571518E-01
  4.616001E-01
  4.613258E-01
  4.719109E-01
  4.733970E-01
  4.797532E-01
  4.724749E-01
  4.697053E-01
  4.570412E-01
  4.544038E-01
  4.475131E-01
  4.546857E-01
  4.645871E-01
  4.745474E-01
  4.742406E-01
  4.796636E-01
  4.693104E-01
  4.647438E-01
  4.509262E-01
  4.512415E-01
  4.481270E-01
  4.595570E-01
  4.629779E-01
  4.739451E-01
  4.705022E-01
  4.725722E-01
  4.633523E-01
  4.657779E-01
  4.625249E-01
  4.725282E-01
  4.734955E-01
  4.816308E-01
  4.756309E-01
  4.761852E-01
  4.662334E-01
  4.673459E-01
  4.603844E-01
  4.638880E-01
  4.577729E-01
  4.618382E-01
  4.579814E-01
  4.662932E-01
  4.663824E-01
  4.751393E-01
  4.705780E-01
  4.719769E-01
  4.621684E-01
  4.640647E-01
  4.602620E-01
  4.692884E-01
  4.685592E-01
  4.746403E-01
  4.675514E-01
  4.692138E-01
  4.633146E-01
  4.706846E-01
  4.704870E-01
  4.792064E-01
  4.748878E-01
  4.769779E-01
  4.673516E-01
  4.672578E-01
  4.582478E-01
  4.604319E-01
  4.551847E-01
  4.622275E-01
  4.614939E-01
  4.703368E-01
  4.670987E-01
  4.706227E-01
  4.627382E-01
  4.650661E-01
  4.592227E-01
  4.642183E-01
  4.599875E-01
  4.662156E-01
  4.629985E-01
  4.710418E-01
  4.709068E-01
  4.748935E-01
  4.672921E-01
  4.648186E-01
  4.557799E-01
  4.573391E-01
  4.553938E-01
  4.633452E-01
  4.641906E-01
  4.705357E-01
  4.666465E-01
  4.683732E-01
  4.630140E-01
  4.672859E-01
  4.669505E-01
  4.757277E-01
  4.765700E-01
  4.821996E-01
  4.765917E-01
  4.753449E-01
  4.652439E-01
  4.630272E-01
  4.552678E-01
  4.573285E-01
  4.544722E-01
  4.608414E-01
  4.608830E-01
  4.684050E-01
  4.677544E-01
  4.731840E-01
  4.697694E-01
  4.730822E-01
  4.692496E-01
  4.736934E-01
  4.711680E-01
  4.754382E-01
  4.706473E-01
  4.716692E-01
  4.648845E-01
  4.670871E-01
  4.648330E-01
  4.726533E-01
  4.737355E-01
  4.803168E-01
  4.758366E-01
  4.757116E-01
  4.669299E-01
  4.662328E-01
  4.595689E-01
  4.615148E-01
  4.569365E-01
  4.604736E-01
  4.575426E-01
  4.628413E-01
  4.611983E-01
  4.667914E-01
  4.642486E-01
  4.680375E-01
  4.632899E-01
  4.652303E-01
  4.600938E-01
  4.640125E-01
  4.673214E-01
  4.682057E-01
  4.680562E-01
  4.710700E-01
  4.691594E-01
  4.676593E-01
  4.621727E-01
  4.610426E-01
  4.601010E-01
  4.650247E-01
  4.679550E-01
  4.721511E-01
  4.701239E-01
  4.684662E-01
  4.638408E-01
  4.650572E-01
  4.676064E-01
  4.760603E-01
  4.808891E-01
  4.842873E-01
  4.789251E-01
  4.727498E-01
  4.635199E-01
  4.600709E-01
  4.572378E-01
  4.597475E-01
  4.602262E-01
  4.638950E-01
  4.653680E-01
  4.711244E-01
  4.746728E-01
  4.799396E-01
  4.789455E-01
  4.774684E-01
  4.717352E-01
  4.706798E-01
  4.698685E-01
  4.740097E-01
  4.743153E-01
  4.746852E-01
  4.697735E-01
  4.682530E-01
  4.668163E-01
  4.716358E-01
  4.744613E-01
  4.780525E-01
  4.749300E-01
  4.721518E-01
  4.661841E-01
  4.646625E-01
  4.619421E-01
  4.633739E-01
  4.626791E-01
  4.654927E-01
  4.653160E-01
  4.669901E-01
  4.640776E-01
  4.633783E-01
  4.609945E-01
  4.642188E-01
  4.665494E-01
  4.715195E-01
  4.710481E-01
  4.709567E-01
  4.613123E-01
  4.622104E-01
  4.654784E-01
  4.685028E-01
  4.711706E-01
  4.716074E-01
  4.715924E-01
  4.709114E-01
  4.716461E-01
  4.723714E-01
  4.733797E-01
  4.722531E-01
  4.700614E-01
  4.667136E-01
  4.654930E-01
  4.666177E-01
  4.713514E-01
  4.766911E-01
  4.812141E-01
  4.813003E-01
  4.776451E-01
  4.704442E-01
  4.636026E-01
  4.582655E-01
  4.570805E-01
  4.587626E-01
  4.633252E-01
  4.675652E-01
  4.711555E-01
  4.722161E-01
  4.725110E-01
  4.717562E-01
  4.721921E-01
  4.731239E-01
  4.757799E-01
  4.779639E-01
  4.794476E-01
  4.776770E-01
  4.738891E-01
  4.682225E-01
  4.641836E-01
  4.622651E-01
  4.640659E-01
  4.670401E-01
  4.703995E-01
  4.712730E-01
  4.708156E-01
  4.689702E-01
  4.684253E-01
  4.683460E-01
  4.693560E-01
  4.691961E-01
  4.687807E-01
  4.672262E-01
  4.665097E-01
  4.657703E-01
  4.663303E-01
  4.667326E-01
  4.679825E-01
  4.683452E-01
  4.685143E-01
  4.667759E-01
  4.646524E-01
  4.619459E-01
  4.616519E-01
  4.593929E-01
  4.627398E-01
  4.670645E-01
  4.730738E-01
  4.748483E-01
  4.754698E-01
  4.730263E-01
  4.731410E-01
  4.732165E-01
  4.757797E-01
  4.752961E-01
  4.739134E-01
  4.687308E-01
  4.656674E-01
  4.639701E-01
  4.683125E-01
  4.737384E-01
  4.800883E-01
  4.802132E-01
  4.766066E-01
  4.681393E-01
  4.624157E-01
  4.590966E-01
  4.622308E-01
  4.664838E-01
  4.724198E-01
  4.743894E-01
  4.756653E-01
  4.740667E-01
  4.744539E-01
  4.735130E-01
  4.740333E-01
  4.720976E-01
  4.718106E-01
  4.707055E-01
  4.724921E-01
  4.725233E-01
  4.726887E-01
  4.689416E-01
  4.659954E-01
  4.624665E-01
  4.631832E-01
  4.642313E-01
  4.673412E-01
  4.675336E-01
  4.683180E-01
  4.674287E-01
  4.693165E-01
  4.701462E-01
  4.722523E-01
  4.715417E-01
  4.721618E-01
  4.716647E-01
  4.736392E-01
  4.734055E-01
  4.732506E-01
  4.699100E-01
  4.686123E-01
  4.674501E-01
  4.696956E-01
  4.698427E-01
  4.693770E-01
  4.647521E-01
  4.549131E-01
  4.563633E-01
  4.606858E-01
  4.664400E-01
  4.720654E-01
  4.757432E-01
  4.771350E-01
  4.767254E-01
  4.759849E-01
  4.754080E-01
  4.748874E-01
  4.732853E-01
  4.704072E-01
  4.668569E-01
  4.645709E-01
  4.647572E-01
  4.677770E-01
  4.720473E-01
  4.755197E-01
  4.759442E-01
  4.729609E-01
  4.676281E-01
  4.626276E-01
  4.601807E-01
  4.618799E-01
  4.670906E-01
  4.737152E-01
  4.782792E-01
  4.786643E-01
  4.747029E-01
  4.689388E-01
  4.642331E-01
  4.629711E-01
  4.652859E-01
  4.699415E-01
  4.741043E-01
  4.755112E-01
  4.729763E-01
  4.678567E-01
  4.624026E-01
  4.591110E-01
  4.586016E-01
  4.603105E-01
  4.624349E-01
  4.640301E-01
  4.648802E-01
  4.661307E-01
  4.683641E-01
  4.715268E-01
  4.740262E-01
  4.746447E-01
  4.729077E-01
  4.703030E-01
  4.685115E-01
  4.690009E-01
  4.714034E-01
  4.746407E-01
  4.768832E-01
  4.772259E-01
  4.751228E-01
  4.711294E-01
  4.658167E-01
  4.605406E-01
  4.564293E-01
  4.579546E-01
  4.580314E-01
  4.597239E-01
  4.662800E-01
  4.706196E-01
  4.745464E-01
  4.729201E-01
  4.716441E-01
  4.686926E-01
  4.698546E-01
  4.701745E-01
  4.721187E-01
  4.696361E-01
  4.671953E-01
  4.623229E-01
  4.619239E-01
  4.630481E-01
  4.692296E-01
  4.732140E-01
  4.762109E-01
  4.725040E-01
  4.681252E-01
  4.621305E-01
  4.619663E-01
  4.641868E-01
  4.715513E-01
  4.764998E-01
  4.805256E-01
  4.782722E-01
  4.755467E-01
  4.702308E-01
  4.682399E-01
  4.653464E-01
  4.654566E-01
  4.639492E-01
  4.652854E-01
  4.649681E-01
  4.667391E-01
  4.654156E-01
  4.651902E-01
  4.623957E-01
  4.625162E-01
  4.617866E-01
  4.642275E-01
  4.646156E-01
  4.668983E-01
  4.670322E-01
  4.698729E-01
  4.706614E-01
  4.725485E-01
  4.701717E-01
  4.685668E-01
  4.654659E-01
  4.672611E-01
  4.697749E-01
  4.754969E-01
  4.774739E-01
  4.788733E-01
  4.760130E-01
  4.749126E-01
  4.719032E-01
  4.707910E-01
  4.662497E-01
  4.628626E-01
  4.559429E-01
  4.593120E-01
  4.607297E-01
  4.663986E-01
  4.681931E-01
  4.721186E-01
  4.705925E-01
  4.711797E-01
  4.678376E-01
  4.684546E-01
  4.659698E-01
  4.668774E-01
  4.636993E-01
  4.638723E-01
  4.613290E-01
  4.639701E-01
  4.648544E-01
  4.702851E-01
  4.718659E-01
  4.752509E-01
  4.723852E-01
  4.705565E-01
  4.641158E-01
  4.623964E-01
  4.603895E-01
  4.657124E-01
  4.697387E-01
  4.763378E-01
  4.754621E-01
  4.735781E-01
  4.656477E-01
  4.621190E-01
  4.584695E-01
  4.621563E-01
  4.644746E-01
  4.697728E-01
  4.688421E-01
  4.684495E-01
  4.630275E-01
  4.618005E-01
  4.591175E-01
  4.620003E-01
  4.623279E-01
  4.659534E-01
  4.653577E-01
  4.680060E-01
  4.674481E-01
  4.707957E-01
  4.701394E-01
  4.714489E-01
  4.672095E-01
  4.653844E-01
  4.607352E-01
  4.620652E-01
  4.630668E-01
  4.700636E-01
  4.740795E-01
  4.799511E-01
  4.789291E-01
  4.778620E-01
  4.706857E-01
  4.663274E-01
  4.594603E-01
  4.582383E-01
  4.640650E-01
  4.644319E-01
  4.633866E-01
  4.668151E-01
  4.675270E-01
  4.698916E-01
  4.673030E-01
  4.664895E-01
  4.630462E-01
  4.639814E-01
  4.632110E-01
  4.655374E-01
  4.639606E-01
  4.643284E-01
  4.617674E-01
  4.636908E-01
  4.650747E-01
  4.713591E-01
  4.747276E-01
  4.787827E-01
  4.760614E-01
  4.729820E-01
  4.657582E-01
  4.630381E-01
  4.605916E-01
  4.642005E-01
  4.662748E-01
  4.705990E-01
  4.699443E-01
  4.705111E-01
  4.675106E-01
  4.678033E-01
  4.654742E-01
  4.659976E-01
  4.633191E-01
  4.638632E-01
  4.623481E-01
  4.648049E-01
  4.646811E-01
  4.671082E-01
  4.658952E-01
  4.674268E-01
  4.664037E-01
  4.689094E-01
  4.685433E-01
  4.706562E-01
  4.690379E-01
  4.696975E-01
  4.667088E-01
  4.659711E-01
  4.618619E-01
  4.613564E-01
  4.599100E-01
  4.640872E-01
  4.671235E-01
  4.728284E-01
  4.731998E-01
  4.736699E-01
  4.695277E-01
  4.686802E-01
  4.662859E-01
  4.679519E-01
  4.665449E-01
  4.671378E-01
  4.663824E-01
  4.684763E-01
  4.674747E-01
  4.676030E-01
  4.666751E-01
  4.681204E-01
  4.681122E-01
  4.691043E-01
  4.674974E-01
  4.666495E-01
  4.638049E-01
  4.627972E-01
  4.611042E-01
  4.625195E-01
  4.639800E-01
  4.681786E-01
  4.709977E-01
  4.749545E-01
  4.765385E-01
  4.787184E-01
  4.775136E-01
  4.752945E-01
  4.688017E-01
  4.628434E-01
  4.568382E-01
  4.560907E-01
  4.575421E-01
  4.623382E-01
  4.643899E-01
  4.652690E-01
  4.624918E-01
  4.616174E-01
  4.614259E-01
  4.652924E-01
  4.683423E-01
  4.715532E-01
  4.704598E-01
  4.688211E-01
  4.651433E-01
  4.642878E-01
  4.636722E-01
  4.660777E-01
  4.673354E-01
  4.697968E-01
  4.697658E-01
  4.703651E-01
  4.684626E-01
  4.675012E-01
  4.646137E-01
  4.635442E-01
  4.616507E-01
  4.624961E-01
  4.627849E-01
  4.652352E-01
  4.660517E-01
  4.680241E-01
  4.676471E-01
  4.678726E-01
  4.652973E-01
  4.634825E-01
  4.602878E-01
  4.602623E-01
  4.608243E-01
  4.644710E-01
  4.772555E-01
  4.754143E-01
  4.715554E-01
  4.685172E-01
  4.668120E-01
  4.667560E-01
  4.668329E-01
  4.669286E-01
  4.662929E-01
  4.657107E-01
  4.648079E-01
  4.643374E-01
  4.639354E-01
  4.645306E-01
  4.658215E-01
  4.684354E-01
  4.714944E-01
  4.750511E-01
  4.777869E-01
  4.794252E-01
  4.785007E-01
  4.752188E-01
  4.695731E-01
  4.637450E-01
  4.589587E-01
  4.568581E-01
  4.567193E-01
  4.581876E-01
  4.597773E-01
  4.618436E-01
  4.640557E-01
  4.670058E-01
  4.693516E-01
  4.705825E-01
  4.696329E-01
  4.678466E-01
  4.661083E-01
  4.660187E-01
  4.667869E-01
  4.680257E-01
  4.684682E-01
  4.689452E-01
  4.695392E-01
  4.709575E-01
  4.717244E-01
  4.711997E-01
  4.683154E-01
  4.644812E-01
  4.607223E-01
  4.591337E-01
  4.598792E-01
  4.633615E-01
  4.678791E-01
  4.721840E-01
  4.736929E-01
  4.717685E-01
  4.661478E-01
  4.594301E-01
  4.538739E-01
  4.524541E-01
  4.554284E-01
  4.623013E-01
  4.698626E-01
  4.756794E-01
  4.792057E-01
  4.787177E-01
  4.746138E-01
  4.688875E-01
  4.655850E-01
  4.649521E-01
  4.671509E-01
  4.691770E-01
  4.702048E-01
  4.685234E-01
  4.658163E-01
  4.626892E-01
  4.618486E-01
  4.631659E-01
  4.670993E-01
  4.708723E-01
  4.736568E-01
  4.739142E-01
  4.737195E-01
  4.734452E-01
  4.741894E-01
  4.734244E-01
  4.704944E-01
  4.644461E-01
  4.584745E-01
  4.543193E-01
  4.542347E-01
  4.562056E-01
  4.589651E-01
  4.599753E-01
  4.606668E-01
  4.618023E-01
  4.656111E-01
  4.704049E-01
  4.749186E-01
  4.759055E-01
  4.738246E-01
  4.690909E-01
  4.650285E-01
  4.624035E-01
  4.627565E-01
  4.645596E-01
  4.677221E-01
  4.699540E-01
  4.710863E-01
  4.694182E-01
  4.662099E-01
  4.617522E-01
  4.589456E-01
  4.584121E-01
  4.616232E-01
  4.664564E-01
  4.715162E-01
  4.733424E-01
  4.719185E-01
  4.671450E-01
  4.620389E-01
  4.572656E-01
  4.545574E-01
  4.532438E-01
  4.549330E-01
  4.592875E-01
  4.668379E-01
  4.742344E-01
  4.855655E-01
  4.808664E-01
  4.753244E-01
  4.680492E-01
  4.650762E-01
  4.627467E-01
  4.640865E-01
  4.639179E-01
  4.653394E-01
  4.641286E-01
  4.645108E-01
  4.630868E-01
  4.643604E-01
  4.645618E-01
  4.672393E-01
  4.676266E-01
  4.691020E-01
  4.678191E-01
  4.685138E-01
  4.678935E-01
  4.698012E-01
  4.693427E-01
  4.695244E-01
  4.662629E-01
  4.644357E-01
  4.612086E-01
  4.610657E-01
  4.599192E-01
  4.615095E-01
  4.621271E-01
  4.661480E-01
  4.693676E-01
  4.743545E-01
  4.752132E-01
  4.749229E-01
  4.703080E-01
  4.674505E-01
  4.640799E-01
  4.644240E-01
  4.637353E-01
  4.653402E-01
  4.654700E-01
  4.684598E-01
  4.698301E-01
  4.719312E-01
  4.691831E-01
  4.655466E-01
  4.589643E-01
  4.561112E-01
  4.550158E-01
  4.598698E-01
  4.653020E-01
  4.727090E-01
  4.754828E-01
  4.760530E-01
  4.705593E-01
  4.646959E-01
  4.570432E-01
  4.540451E-01
  4.534496E-01
  4.595411E-01
  4.671376E-01
  4.774406E-01
  4.830644E-01
  4.793909E-01
  4.762005E-01
  4.740560E-01
  4.661882E-01
  4.642154E-01
  4.605422E-01
  4.636041E-01
  4.628800E-01
  4.657177E-01
  4.625887E-01
  4.630500E-01
  4.595819E-01
  4.623419E-01
  4.626040E-01
  4.680110E-01
  4.674685E-01
  4.684927E-01
  4.627416E-01
  4.616623E-01
  4.588660E-01
  4.637660E-01
  4.655096E-01
  4.701447E-01
  4.672652E-01
  4.669450E-01
  4.626272E-01
  4.647473E-01
  4.638561E-01
  4.672518E-01
  4.650623E-01
  4.670307E-01
  4.658843E-01
  4.713224E-01
  4.731696E-01
  4.780054E-01
  4.749261E-01
  4.729590E-01
  4.649354E-01
  4.622185E-01
  4.576235E-01
  4.605478E-01
  4.614782E-01
  4.678936E-01
  4.689681E-01
  4.719646E-01
  4.671889E-01
  4.645222E-01
  4.571833E-01
  4.564690E-01
  4.549532E-01
  4.612539E-01
  4.646030E-01
  4.712494E-01
  4.703523E-01
  4.710379E-01
  4.661978E-01
  4.668156E-01
  4.645195E-01
  4.673557E-01
  4.653719E-01
  4.677562E-01
  4.668609E-01
  4.724335E-01
  4.744439E-01
  4.773592E-01
  4.713133E-01
  4.716520E-01
  4.646249E-01
  4.655340E-01
  4.598575E-01
  4.619965E-01
  4.572416E-01
  4.602471E-01
  4.566870E-01
  4.613244E-01
  4.596100E-01
  4.657634E-01
  4.643963E-01
  4.690508E-01
  4.642719E-01
  4.649194E-01
  4.577026E-01
  4.590508E-01
  4.556832E-01
  4.620843E-01
  4.624808E-01
  4.698335E-01
  4.684983E-01
  4.732101E-01
  4.698400E-01
  4.734010E-01
  4.692222E-01
  4.722677E-01
  4.686964E-01
  4.739799E-01
  4.731113E-01
  4.790472E-01
  4.749983E-01
  4.750532E-01
  4.659531E-01
  4.649537E-01
  4.591196E-01
  4.629731E-01
  4.608330E-01
  4.664636E-01
  4.652947E-01
  4.719999E-01
  4.709687E-01
  4.751006E-01
  4.684361E-01
  4.664265E-01
  4.568842E-01
  4.570115E-01
  4.535458E-01
  4.604386E-01
  4.614744E-01
  4.694440E-01
  4.686884E-01
  4.738593E-01
  4.708269E-01
  4.748197E-01
  4.713433E-01
  4.750956E-01
  4.714382E-01
  4.754373E-01
  4.726409E-01
  4.774917E-01
  4.744443E-01
  4.667617E-01
  4.651813E-01
  4.700149E-01
  4.650373E-01
  4.670703E-01
  4.614794E-01
  4.645217E-01
  4.600917E-01
  4.634001E-01
  4.585600E-01
  4.618475E-01
  4.583902E-01
  4.644214E-01
  4.636568E-01
  4.702634E-01
  4.664788E-01
  4.674092E-01
  4.585753E-01
  4.586064E-01
  4.542376E-01
  4.614764E-01
  4.626289E-01
  4.706647E-01
  4.682962E-01
  4.721607E-01
  4.682118E-01
  4.732364E-01
  4.706011E-01
  4.747645E-01
  4.694036E-01
  4.715415E-01
  4.669674E-01
  4.720940E-01
  4.699702E-01
  4.746466E-01
  4.690522E-01
  4.693636E-01
  4.612602E-01
  4.623495E-01
  4.581546E-01
  4.646745E-01
  4.653571E-01
  4.742879E-01
  4.734705E-01
  4.772487E-01
  4.696364E-01
  4.682141E-01
  4.595470E-01
  4.612355E-01