# vtk DataFile Version 2.0
title
ASCII
DATASET STRUCTURED_GRID
DIMENSIONS   64   64    1
POINTS   4096  float
  0.000000E+00  0.000000E+00  0.000000E+00
  0.000000E+00  3.906250E-01  0.000000E+00
  0.000000E+00  7.812500E-01  0.000000E+00
  0.000000E+00  1.171875E+00  0.000000E+00
  0.000000E+00  1.562500E+00  0.000000E+00
  0.000000E+00  1.953125E+00  0.000000E+00
  0.000000E+00  2.343750E+00  0.000000E+00
  0.000000E+00  2.734375E+00  0.000000E+00
  0.000000E+00  3.125000E+00  0.000000E+00
  0.000000E+00  3.515625E+00  0.000000E+00
  0.000000E+00  3.906250E+00  0.000000E+00
  0.000000E+00  4.296875E+00  0.000000E+00
  0.000000E+00  4.687500E+00  0.000000E+00
  0.000000E+00  5.078125E+00  0.000000E+00
  0.000000E+00  5.468750E+00  0.000000E+00
  0.000000E+00  5.859375E+00  0.000000E+00
  0.000000E+00  6.250000E+00  0.000000E+00
  0.000000E+00  6.640625E+00  0.000000E+00
  0.000000E+00  7.031250E+00  0.000000E+00
  0.000000E+00  7.421875E+00  0.000000E+00
  0.000000E+00  7.812500E+00  0.000000E+00
  0.000000E+00  8.203125E+00  0.000000E+00
  0.000000E+00  8.593750E+00  0.000000E+00
  0.000000E+00  8.984375E+00  0.000000E+00
  0.000000E+00  9.375000E+00  0.000000E+00
  0.000000E+00  9.765625E+00  0.000000E+00
  0.000000E+00  1.015625E+01  0.000000E+00
  0.000000E+00  1.054688E+01  0.000000E+00
  0.000000E+00  1.093750E+01  0.000000E+00
  0.000000E+00  1.132812E+01  0.000000E+00
  0.000000E+00  1.171875E+01  0.000000E+00
  0.000000E+00  1.210938E+01  0.000000E+00
  0.000000E+00  1.250000E+01  0.000000E+00
  0.000000E+00  1.289062E+01  0.000000E+00
  0.000000E+00  1.328125E+01  0.000000E+00
  0.000000E+00  1.367188E+01  0.000000E+00
  0.000000E+00  1.406250E+01  0.000000E+00
  0.000000E+00  1.445312E+01  0.000000E+00
  0.000000E+00  1.484375E+01  0.000000E+00
  0.000000E+00  1.523438E+01  0.000000E+00
  0.000000E+00  1.562500E+01  0.000000E+00
  0.000000E+00  1.601562E+01  0.000000E+00
  0.000000E+00  1.640625E+01  0.000000E+00
  0.000000E+00  1.679688E+01  0.000000E+00
  0.000000E+00  1.718750E+01  0.000000E+00
  0.000000E+00  1.757812E+01  0.000000E+00
  0.000000E+00  1.796875E+01  0.000000E+00
  0.000000E+00  1.835938E+01  0.000000E+00
  0.000000E+00  1.875000E+01  0.000000E+00
  0.000000E+00  1.914062E+01  0.000000E+00
  0.000000E+00  1.953125E+01  0.000000E+00
  0.000000E+00  1.992188E+01  0.000000E+00
  0.000000E+00  2.031250E+01  0.000000E+00
  0.000000E+00  2.070312E+01  0.000000E+00
  0.000000E+00  2.109375E+01  0.000000E+00
  0.000000E+00  2.148438E+01  0.000000E+00
  0.000000E+00  2.187500E+01  0.000000E+00
  0.000000E+00  2.226562E+01  0.000000E+00
  0.000000E+00  2.265625E+01  0.000000E+00
  0.000000E+00  2.304688E+01  0.000000E+00
  0.000000E+00  2.343750E+01  0.000000E+00
  0.000000E+00  2.382812E+01  0.000000E+00
  0.000000E+00  2.421875E+01  0.000000E+00
  0.000000E+00  2.460938E+01  0.000000E+00
  3.906250E-01  0.000000E+00  0.000000E+00
  3.906250E-01  3.906250E-01  0.000000E+00
  3.906250E-01  7.812500E-01  0.000000E+00
  3.906250E-01  1.171875E+00  0.000000E+00
  3.906250E-01  1.562500E+00  0.000000E+00
  3.906250E-01  1.953125E+00  0.000000E+00
  3.906250E-01  2.343750E+00  0.000000E+00
  3.906250E-01  2.734375E+00  0.000000E+00
  3.906250E-01  3.125000E+00  0.000000E+00
  3.906250E-01  3.515625E+00  0.000000E+00
  3.906250E-01  3.906250E+00  0.000000E+00
  3.906250E-01  4.296875E+00  0.000000E+00
  3.906250E-01  4.687500E+00  0.000000E+00
  3.906250E-01  5.078125E+00  0.000000E+00
  3.906250E-01  5.468750E+00  0.000000E+00
  3.906250E-01  5.859375E+00  0.000000E+00
  3.906250E-01  6.250000E+00  0.000000E+00
  3.906250E-01  6.640625E+00  0.000000E+00
  3.906250E-01  7.031250E+00  0.000000E+00
  3.906250E-01  7.421875E+00  0.000000E+00
  3.906250E-01  7.812500E+00  0.000000E+00
  3.906250E-01  8.203125E+00  0.000000E+00
  3.906250E-01  8.593750E+00  0.000000E+00
  3.906250E-01  8.984375E+00  0.000000E+00
  3.906250E-01  9.375000E+00  0.000000E+00
  3.906250E-01  9.765625E+00  0.000000E+00
  3.906250E-01  1.015625E+01  0.000000E+00
  3.906250E-01  1.054688E+01  0.000000E+00
  3.906250E-01  1.093750E+01  0.000000E+00
  3.906250E-01  1.132812E+01  0.000000E+00
  3.906250E-01  1.171875E+01  0.000000E+00
  3.906250E-01  1.210938E+01  0.000000E+00
  3.906250E-01  1.250000E+01  0.000000E+00
  3.906250E-01  1.289062E+01  0.000000E+00
  3.906250E-01  1.328125E+01  0.000000E+00
  3.906250E-01  1.367188E+01  0.000000E+00
  3.906250E-01  1.406250E+01  0.000000E+00
  3.906250E-01  1.445312E+01  0.000000E+00
  3.906250E-01  1.484375E+01  0.000000E+00
  3.906250E-01  1.523438E+01  0.000000E+00
  3.906250E-01  1.562500E+01  0.000000E+00
  3.906250E-01  1.601562E+01  0.000000E+00
  3.906250E-01  1.640625E+01  0.000000E+00
  3.906250E-01  1.679688E+01  0.000000E+00
  3.906250E-01  1.718750E+01  0.000000E+00
  3.906250E-01  1.757812E+01  0.000000E+00
  3.906250E-01  1.796875E+01  0.000000E+00
  3.906250E-01  1.835938E+01  0.000000E+00
  3.906250E-01  1.875000E+01  0.000000E+00
  3.906250E-01  1.914062E+01  0.000000E+00
  3.906250E-01  1.953125E+01  0.000000E+00
  3.906250E-01  1.992188E+01  0.000000E+00
  3.906250E-01  2.031250E+01  0.000000E+00
  3.906250E-01  2.070312E+01  0.000000E+00
  3.906250E-01  2.109375E+01  0.000000E+00
  3.906250E-01  2.148438E+01  0.000000E+00
  3.906250E-01  2.187500E+01  0.000000E+00
  3.906250E-01  2.226562E+01  0.000000E+00
  3.906250E-01  2.265625E+01  0.000000E+00
  3.906250E-01  2.304688E+01  0.000000E+00
  3.906250E-01  2.343750E+01  0.000000E+00
  3.906250E-01  2.382812E+01  0.000000E+00
  3.906250E-01  2.421875E+01  0.000000E+00
  3.906250E-01  2.460938E+01  0.000000E+00
  7.812500E-01  0.000000E+00  0.000000E+00
  7.812500E-01  3.906250E-01  0.000000E+00
  7.812500E-01  7.812500E-01  0.000000E+00
  7.812500E-01  1.171875E+00  0.000000E+00
  7.812500E-01  1.562500E+00  0.000000E+00
  7.812500E-01  1.953125E+00  0.000000E+00
  7.812500E-01  2.343750E+00  0.000000E+00
  7.812500E-01  2.734375E+00  0.000000E+00
  7.812500E-01  3.125000E+00  0.000000E+00
  7.812500E-01  3.515625E+00  0.000000E+00
  7.812500E-01  3.906250E+00  0.000000E+00
  7.812500E-01  4.296875E+00  0.000000E+00
  7.812500E-01  4.687500E+00  0.000000E+00
  7.812500E-01  5.078125E+00  0.000000E+00
  7.812500E-01  5.468750E+00  0.000000E+00
  7.812500E-01  5.859375E+00  0.000000E+00
  7.812500E-01  6.250000E+00  0.000000E+00
  7.812500E-01  6.640625E+00  0.000000E+00
  7.812500E-01  7.031250E+00  0.000000E+00
  7.812500E-01  7.421875E+00  0.000000E+00
  7.812500E-01  7.812500E+00  0.000000E+00
  7.812500E-01  8.203125E+00  0.000000E+00
  7.812500E-01  8.593750E+00  0.000000E+00
  7.812500E-01  8.984375E+00  0.000000E+00
  7.812500E-01  9.375000E+00  0.000000E+00
  7.812500E-01  9.765625E+00  0.000000E+00
  7.812500E-01  1.015625E+01  0.000000E+00
  7.812500E-01  1.054688E+01  0.000000E+00
  7.812500E-01  1.093750E+01  0.000000E+00
  7.812500E-01  1.132812E+01  0.000000E+00
  7.812500E-01  1.171875E+01  0.000000E+00
  7.812500E-01  1.210938E+01  0.000000E+00
  7.812500E-01  1.250000E+01  0.000000E+00
  7.812500E-01  1.289062E+01  0.000000E+00
  7.812500E-01  1.328125E+01  0.000000E+00
  7.812500E-01  1.367188E+01  0.000000E+00
  7.812500E-01  1.406250E+01  0.000000E+00
  7.812500E-01  1.445312E+01  0.000000E+00
  7.812500E-01  1.484375E+01  0.000000E+00
  7.812500E-01  1.523438E+01  0.000000E+00
  7.812500E-01  1.562500E+01  0.000000E+00
  7.812500E-01  1.601562E+01  0.000000E+00
  7.812500E-01  1.640625E+01  0.000000E+00
  7.812500E-01  1.679688E+01  0.000000E+00
  7.812500E-01  1.718750E+01  0.000000E+00
  7.812500E-01  1.757812E+01  0.000000E+00
  7.812500E-01  1.796875E+01  0.000000E+00
  7.812500E-01  1.835938E+01  0.000000E+00
  7.812500E-01  1.875000E+01  0.000000E+00
  7.812500E-01  1.914062E+01  0.000000E+00
  7.812500E-01  1.953125E+01  0.000000E+00
  7.812500E-01  1.992188E+01  0.000000E+00
  7.812500E-01  2.031250E+01  0.000000E+00
  7.812500E-01  2.070312E+01  0.000000E+00
  7.812500E-01  2.109375E+01  0.000000E+00
  7.812500E-01  2.148438E+01  0.000000E+00
  7.812500E-01  2.187500E+01  0.000000E+00
  7.812500E-01  2.226562E+01  0.000000E+00
  7.812500E-01  2.265625E+01  0.000000E+00
  7.812500E-01  2.304688E+01  0.000000E+00
  7.812500E-01  2.343750E+01  0.000000E+00
  7.812500E-01  2.382812E+01  0.000000E+00
  7.812500E-01  2.421875E+01  0.000000E+00
  7.812500E-01  2.460938E+01  0.000000E+00
  1.171875E+00  0.000000E+00  0.000000E+00
  1.171875E+00  3.906250E-01  0.000000E+00
  1.171875E+00  7.812500E-01  0.000000E+00
  1.171875E+00  1.171875E+00  0.000000E+00
  1.171875E+00  1.562500E+00  0.000000E+00
  1.171875E+00  1.953125E+00  0.000000E+00
  1.171875E+00  2.343750E+00  0.000000E+00
  1.171875E+00  2.734375E+00  0.000000E+00
  1.171875E+00  3.125000E+00  0.000000E+00
  1.171875E+00  3.515625E+00  0.000000E+00
  1.171875E+00  3.906250E+00  0.000000E+00
  1.171875E+00  4.296875E+00  0.000000E+00
  1.171875E+00  4.687500E+00  0.000000E+00
  1.171875E+00  5.078125E+00  0.000000E+00
  1.171875E+00  5.468750E+00  0.000000E+00
  1.171875E+00  5.859375E+00  0.000000E+00
  1.171875E+00  6.250000E+00  0.000000E+00
  1.171875E+00  6.640625E+00  0.000000E+00
  1.171875E+00  7.031250E+00  0.000000E+00
  1.171875E+00  7.421875E+00  0.000000E+00
  1.171875E+00  7.812500E+00  0.000000E+00
  1.171875E+00  8.203125E+00  0.000000E+00
  1.171875E+00  8.593750E+00  0.000000E+00
  1.171875E+00  8.984375E+00  0.000000E+00
  1.171875E+00  9.375000E+00  0.000000E+00
  1.171875E+00  9.765625E+00  0.000000E+00
  1.171875E+00  1.015625E+01  0.000000E+00
  1.171875E+00  1.054688E+01  0.000000E+00
  1.171875E+00  1.093750E+01  0.000000E+00
  1.171875E+00  1.132812E+01  0.000000E+00
  1.171875E+00  1.171875E+01  0.000000E+00
  1.171875E+00  1.210938E+01  0.000000E+00
  1.171875E+00  1.250000E+01  0.000000E+00
  1.171875E+00  1.289062E+01  0.000000E+00
  1.171875E+00  1.328125E+01  0.000000E+00
  1.171875E+00  1.367188E+01  0.000000E+00
  1.171875E+00  1.406250E+01  0.000000E+00
  1.171875E+00  1.445312E+01  0.000000E+00
[...]
POINT_DATA   4096
SCALARS CON  float  1
LOOKUP_TABLE default
  4.714086E-01
  4.737458E-01
  4.822307E-01
  4.776393E-01
  4.777921E-01
  4.688951E-01
  4.712410E-01
  4.688763E-01
  4.767764E-01
  4.747460E-01
  4.776975E-01
  4.691370E-01
  4.686881E-01
  4.622036E-01
  4.677483E-01
  4.675305E-01
  4.760613E-01
  4.740316E-01
  4.774970E-01
  4.701802E-01
  4.706748E-01
  4.631412E-01
  4.646139E-01
  4.579603E-01
  4.603007E-01
  4.559632E-01
  4.628419E-01
  4.639712E-01
  4.741898E-01
  4.737110E-01
  4.779307E-01
  4.707973E-01
  4.721291E-01
  4.672709E-01
  4.732262E-01
  4.709896E-01
  4.751459E-01
  4.680308E-01
  4.679480E-01
  4.600097E-01
  4.621727E-01
  4.571680E-01
  4.606273E-01
  4.551171E-01
  4.582428E-01
  4.552275E-01
  4.645330E-01
  4.690310E-01
  4.822998E-01
  4.823471E-01
  4.832118E-01
  4.694415E-01
  4.638111E-01
  4.555614E-01
  4.644846E-01
  4.722425E-01
  4.899569E-01
  4.936073E-01
  4.967669E-01
  4.838460E-01
  4.769915E-01
  4.639663E-01
  4.643439E-01
  4.616865E-01
  4.723831E-01
  4.765163E-01
  4.863872E-01
  4.844331E-01
  4.834872E-01
  4.721749E-01
  4.689379E-01
  4.632410E-01
  4.691333E-01
  4.704258E-01
  4.776719E-01
  4.747975E-01
  4.757191E-01
  4.683462E-01
  4.688310E-01
  4.649181E-01
  4.704121E-01
  4.699326E-01
  4.751314E-01
  4.707422E-01
  4.710408E-01
  4.639337E-01
  4.649868E-01
  4.609998E-01
  4.650964E-01
  4.625947E-01
  4.669885E-01
  4.650025E-01
  4.709117E-01
  4.705401E-01
  4.765105E-01
  4.736159E-01
  4.753106E-01
  4.684565E-01
  4.683925E-01
  4.627032E-01
  4.657799E-01
  4.632789E-01
  4.676566E-01
  4.637402E-01
  4.647690E-01
  4.574978E-01
  4.569290E-01
  4.507075E-01
  4.536401E-01
  4.530034E-01
  4.628358E-01
  4.684032E-01
  4.802953E-01
  4.803284E-01
  4.803007E-01
  4.686432E-01
  4.651644E-01
  4.615551E-01
  4.731060E-01
  4.825818E-01
  4.969543E-01
  4.961920E-01
  4.934934E-01
  4.790366E-01
  4.723614E-01
  4.627449E-01
  4.644599E-01
  4.632829E-01
  4.634576E-01
  4.757099E-01
  4.872370E-01
  4.887450E-01
  4.838872E-01
  4.726968E-01
  4.654420E-01
  4.615980E-01
  4.653568E-01
  4.697234E-01
  4.754416E-01
  4.759066E-01
  4.752184E-01
  4.707995E-01
  4.690510E-01
  4.670190E-01
  4.688504E-01
  4.692812E-01
  4.714108E-01
  4.703809E-01
  4.705524E-01
  4.681583E-01
  4.677728E-01
  4.652460E-01
  4.649089E-01
  4.629271E-01
  4.640022E-01
  4.639711E-01
  4.663650E-01
  4.658734E-01
  4.661864E-01
  4.636060E-01
  4.636687E-01
  4.631484E-01
  4.661442E-01
  4.671809E-01
  4.690763E-01
  4.670033E-01
  4.656087E-01
  4.614194E-01
  4.591807E-01
  4.549216E-01
  4.531478E-01
  4.503400E-01
  4.517378E-01
  4.541910E-01
  4.620850E-01
  4.698347E-01
  4.785243E-01
  4.803298E-01
  4.780375E-01
  4.695359E-01
  4.639751E-01
  4.618823E-01
  4.694483E-01
  4.802737E-01
  4.927341E-01
  4.960937E-01
  4.918677E-01
  4.781538E-01
  4.647645E-01
  4.527213E-01
  4.495118E-01
  4.520672E-01
  4.636703E-01
  4.767304E-01
  4.841335E-01
  4.887688E-01
  4.804129E-01
  4.705399E-01
  4.572987E-01
  4.538335E-01
  4.538250E-01
  4.633631E-01
  4.703348E-01
  4.784160E-01
  4.770519E-01
  4.750470E-01
  4.673118E-01
  4.654085E-01
  4.632645E-01
  4.684769E-01
  4.706049E-01
  4.750793E-01
  4.726894E-01
  4.725370E-01
  4.683860E-01
  4.693953E-01
  4.670331E-01
  4.681783E-01
  4.642116E-01
  4.639587E-01
  4.608844E-01
  4.639140E-01
  4.643694E-01
  4.683879E-01
  4.661224E-01
  4.654182E-01
  4.598593E-01
  4.599054E-01
  4.589913E-01
  4.644918E-01
  4.659196E-01
  4.687686E-01
  4.641140E-01
  4.614949E-01
  4.554998E-01
  4.561842E-01
  4.560641E-01
  4.623741E-01
  4.657828E-01
  4.729036E-01
  4.739562E-01
  4.755421E-01
  4.694197E-01
  4.658874E-01
  4.606422E-01
  4.647497E-01
  4.703560E-01
  4.820926E-01
  4.864308E-01
  4.876119E-01
  4.778137E-01
  4.691944E-01
  4.580300E-01
  4.547132E-01
  4.518233E-01
  4.574710E-01
  4.586694E-01
  4.750397E-01
  4.795698E-01
  4.855778E-01
  4.738960E-01
  4.669636E-01
  4.526977E-01
  4.531856E-01
  4.512684E-01
  4.625991E-01
  4.656935E-01
  4.752047E-01
  4.713557E-01
  4.732265E-01
  4.651425E-01
  4.676501E-01
  4.638031E-01
  4.711890E-01
  4.702272E-01
  4.773411E-01
  4.732669E-01
  4.762075E-01
  4.686569E-01
  4.696323E-01
  4.617389E-01
  4.635900E-01
  4.575655E-01
  4.617870E-01
  4.579976E-01
  4.635595E-01
  4.598623E-01
  4.646571E-01
  4.601003E-01
  4.648173E-01
  4.612541E-01
  4.674263E-01
  4.647024E-01
  4.703052E-01
  4.654827E-01
  4.681779E-01
  4.608698E-01
  4.629011E-01
  4.575757E-01
  4.635328E-01
  4.624199E-01
  4.710703E-01
  4.699790E-01
  4.762648E-01
  4.712262E-01
  4.730161E-01
  4.640317E-01
  4.637424E-01
  4.561009E-01
  4.608610E-01
  4.606593E-01
  4.720536E-01
  4.737548E-01
  4.805735E-01
  4.727406E-01
  4.696300E-01
  4.560322E-01
  4.532597E-01
  4.461157E-01
  4.539747E-01
  4.645385E-01
  4.751766E-01
  4.747773E-01
  4.804050E-01
  4.693658E-01
  4.644900E-01
  4.497928E-01
  4.500028E-01
  4.466284E-01
  4.587745E-01
  4.625804E-01
  4.743642E-01
  4.707358E-01
  4.728031E-01
  4.628947E-01
  4.653951E-01
  4.619855E-01
  4.726684E-01
  4.738079E-01
  4.825330E-01
  4.762531E-01
  4.768679E-01
  4.662968E-01
  4.673877E-01
  4.599027E-01
  4.635128E-01
  4.570074E-01
  4.613440E-01
  4.573215E-01
  4.661337E-01
  4.661671E-01
  4.753429E-01
  4.704718E-01
  4.720277E-01
  4.618109E-01
  4.639744E-01
  4.599955E-01
  4.694747E-01
  4.685942E-01
  4.750286E-01
  4.676644E-01
  4.696009E-01
  4.633845E-01
  4.710023E-01
  4.705233E-01
  4.796311E-01
  4.751766E-01
  4.776112E-01
  4.675005E-01
  4.672636E-01
  4.574998E-01
  4.596885E-01
  4.541791E-01
  4.617373E-01
  4.610202E-01
  4.703712E-01
  4.669050E-01
  4.705800E-01
  4.621130E-01
  4.643857E-01
  4.580352E-01
  4.633151E-01
  4.590579E-01
  4.659868E-01
  4.628037E-01
  4.714120E-01
  4.713241E-01
  4.754425E-01
  4.673131E-01
  4.645195E-01
  4.548698E-01
  4.564120E-01
  4.544120E-01
  4.628982E-01
  4.639905E-01
  4.707932E-01
  4.667248E-01
  4.684183E-01
  4.626385E-01
  4.670125E-01
  4.666916E-01
  4.760695E-01
  4.771940E-01
  4.832661E-01
  4.773766E-01
  4.759238E-01
  4.651605E-01
  4.627310E-01
  4.545709E-01
  4.567483E-01
  4.537929E-01
  4.605060E-01
  4.605596E-01
  4.683942E-01
  4.676072E-01
  4.732119E-01
  4.696511E-01
  4.732841E-01
  4.694994E-01
  4.743430E-01
  4.717285E-01
  4.760915E-01
  4.709008E-01
  4.718880E-01
  4.648361E-01
  4.672994E-01
  4.650479E-01
  4.732163E-01
  4.741936E-01
  4.809490E-01
  4.762308E-01
  4.761895E-01
  4.670477E-01
  4.662623E-01
  4.591155E-01
  4.609891E-01
  4.561093E-01
  4.598271E-01
  4.568221E-01
  4.624531E-01
  4.607836E-01
  4.666358E-01
  4.638608E-01
  4.676477E-01
  4.625066E-01
  4.645030E-01
  4.592568E-01
  4.636119E-01
  4.674291E-01
  4.683693E-01
  4.682257E-01
  4.712370E-01
  4.691946E-01
  4.674706E-01
  4.616800E-01
  4.603817E-01
  4.595038E-01
  4.647942E-01
  4.681625E-01
  4.726494E-01
  4.705281E-01
  4.685274E-01
  4.635101E-01
  4.646151E-01
  4.673995E-01
  4.764003E-01
  4.817428E-01
  4.853648E-01
  4.797402E-01
  4.730372E-01
  4.632445E-01
  4.594685E-01
  4.565206E-01
  4.591100E-01
  4.597280E-01
  4.636132E-01
  4.653068E-01
  4.713165E-01
  4.750405E-01
  4.804247E-01
  4.794268E-01
  4.779273E-01
  4.721383E-01
  4.710812E-01
  4.702542E-01
  4.744047E-01
  4.746673E-01
  4.750164E-01
  4.700663E-01
  4.685584E-01
  4.671160E-01
  4.719766E-01
  4.748464E-01
  4.785448E-01
  4.754596E-01
  4.726061E-01
  4.663426E-01
  4.644627E-01
  4.614477E-01
  4.628395E-01
  4.622706E-01
  4.652692E-01
  4.651315E-01
  4.667357E-01
  4.636753E-01
  4.629075E-01
  4.605084E-01
  4.638070E-01
  4.662178E-01
  4.713222E-01
  4.709682E-01
  4.710058E-01
  4.611401E-01
  4.620253E-01
  4.655715E-01
  4.686037E-01
  4.714194E-01
  4.716697E-01
  4.716964E-01
  4.709041E-01
  4.718859E-01
  4.726707E-01
  4.739102E-01
  4.726108E-01
  4.703176E-01
  4.665575E-01
  4.652377E-01
  4.662284E-01
  4.713301E-01
  4.769996E-01
  4.820768E-01
  4.821840E-01
  4.783742E-01
  4.704969E-01
  4.632187E-01
  4.574295E-01
  4.563229E-01
  4.581033E-01
  4.631636E-01
  4.676929E-01
  4.716934E-01
  4.727045E-01
  4.729912E-01
  4.719322E-01
  4.724196E-01
  4.733607E-01
  4.763984E-01
  4.786923E-01
  4.803441E-01
  4.782757E-01
  4.742869E-01
  4.681742E-01
  4.640410E-01
  4.619548E-01
  4.639733E-01
  4.670132E-01
  4.706866E-01
  4.715810E-01
  4.712914E-01
  4.692734E-01
  4.687219E-01
  4.683800E-01
  4.694047E-01
  4.690683E-01
  4.687210E-01
  4.669540E-01
  4.662408E-01
  4.653346E-01
  4.661223E-01
  4.666543E-01
  4.682870E-01
  4.686618E-01
  4.688928E-01
  4.668423E-01
  4.646249E-01
  4.616641E-01
  4.614736E-01
  4.589369E-01
  4.625118E-01
  4.669118E-01
  4.733816E-01
  4.751983E-01
  4.760333E-01
  4.733854E-01
  4.736616E-01
  4.736613E-01
  4.764840E-01
  4.757895E-01
  4.743110E-01
  4.685741E-01
  4.653439E-01
  4.634007E-01
  4.681415E-01
  4.738643E-01
  4.808075E-01
  4.808833E-01
  4.771519E-01
  4.679949E-01
  4.619642E-01
  4.582764E-01
  4.616674E-01
  4.660827E-01
  4.726094E-01
  4.748104E-01
  4.765043E-01
  4.748009E-01
  4.752421E-01
  4.739363E-01
  4.744236E-01
  4.721987E-01
  4.720370E-01
  4.707914E-01
  4.727852E-01
  4.726766E-01
  4.729789E-01
  4.689679E-01
  4.660125E-01
  4.621164E-01
  4.628383E-01
  4.637134E-01
  4.671688E-01
  4.675106E-01
  4.687363E-01
  4.677681E-01
  4.696814E-01
  4.701211E-01
  4.722677E-01
  4.714601E-01
  4.724074E-01
  4.718367E-01
  4.739132E-01
  4.733855E-01
  4.733510E-01
  4.699674E-01
  4.690534E-01
  4.679106E-01
  4.703631E-01
  4.702315E-01
  4.697029E-01
  4.646460E-01
  4.541876E-01
  4.555863E-01
  4.602853E-01
  4.662885E-01
  4.724050E-01
  4.762532E-01
  4.779431E-01
  4.774947E-01
  4.768696E-01
  4.760711E-01
  4.754616E-01
  4.734528E-01
  4.703941E-01
  4.664835E-01
  4.641897E-01
  4.642832E-01
  4.676161E-01
  4.720884E-01
  4.759832E-01
  4.763787E-01
  4.733062E-01
  4.674519E-01
  4.621979E-01
  4.594786E-01
  4.614376E-01
  4.669426E-01
  4.742450E-01
  4.791778E-01
  4.798769E-01
  4.755955E-01
  4.694695E-01
  4.641413E-01
  4.627157E-01
  4.649453E-01
  4.699821E-01
  4.743199E-01
  4.759926E-01
  4.732683E-01
  4.680302E-01
  4.621450E-01
  4.586746E-01
  4.578408E-01
  4.596132E-01
  4.617413E-01
  4.637156E-01
  4.647491E-01
  4.663569E-01
  4.685892E-01
  4.718848E-01
  4.742378E-01
  4.749582E-01
  4.730870E-01
  4.705486E-01
  4.685419E-01
  4.690884E-01
  4.714624E-01
  4.751127E-01
  4.776318E-01
  4.783831E-01
  4.761641E-01
  4.719807E-01
  4.660453E-01
  4.603684E-01
  4.557535E-01
  4.572334E-01
  4.571878E-01
  4.590447E-01
  4.659096E-01
  4.707336E-01
  4.750015E-01
  4.735876E-01
  4.722602E-01
  4.692342E-01
  4.702488E-01
  4.704963E-01
  4.722521E-01
  4.695759E-01
  4.668369E-01
  4.618065E-01
  4.613523E-01
  4.627094E-01
  4.692022E-01
  4.735396E-01
  4.765953E-01
  4.727299E-01
  4.679638E-01
  4.617189E-01
  4.614657E-01
  4.639376E-01
  4.716785E-01
  4.771230E-01
  4.814476E-01
  4.793026E-01
  4.763372E-01
  4.706727E-01
  4.682374E-01
  4.650699E-01
  4.649935E-01
  4.635204E-01
  4.649178E-01
  4.647705E-01
  4.666286E-01
  4.654069E-01
  4.651167E-01
  4.622148E-01
  4.620824E-01
  4.611983E-01
  4.635650E-01
  4.641637E-01
  4.667350E-01
  4.672095E-01
  4.701420E-01
  4.708787E-01
  4.725472E-01
  4.700988E-01
  4.685142E-01
  4.656182E-01
  4.675569E-01
  4.702418E-01
  4.760477E-01
  4.781949E-01
  4.796817E-01
  4.768859E-01
  4.756307E-01
  4.724003E-01
  4.709226E-01
  4.660741E-01
  4.623399E-01
  4.550571E-01
  4.585679E-01
  4.601480E-01
  4.661301E-01
  4.681516E-01
  4.723640E-01
  4.709718E-01
  4.717006E-01
  4.682807E-01
  4.687718E-01
  4.659654E-01
  4.666368E-01
  4.632130E-01
  4.633519E-01
  4.607936E-01
  4.636060E-01
  4.646641E-01
  4.704306E-01
  4.722242E-01
  4.757436E-01
  4.726693E-01
  4.705603E-01
  4.637662E-01
  4.619721E-01
  4.600541E-01
  4.657736E-01
  4.701893E-01
  4.771574E-01
  4.762513E-01
  4.740777E-01
  4.655520E-01
  4.615701E-01
  4.576451E-01
  4.614804E-01
  4.640843E-01
  4.697783E-01
  4.689829E-01
  4.685945E-01
  4.629292E-01
  4.615173E-01
  4.586201E-01
  4.614972E-01
  4.618571E-01
  4.657039E-01
  4.652669E-01
  4.681225E-01
  4.675913E-01
  4.709785E-01
  4.702259E-01
  4.715288E-01
  4.671969E-01
  4.653713E-01
  4.606373E-01
  4.620333E-01
  4.631332E-01
  4.704626E-01
  4.747723E-01
  4.809235E-01
  4.798332E-01
  4.785244E-01
  4.708531E-01
  4.660882E-01
  4.588248E-01
  4.574449E-01
  4.637665E-01
  4.641571E-01
  4.629551E-01
  4.665518E-01
  4.672957E-01
  4.699309E-01
  4.673274E-01
  4.666353E-01
  4.630234E-01
  4.639906E-01
  4.630256E-01
  4.653721E-01
  4.635739E-01
  4.639450E-01
  4.612282E-01
  4.633602E-01
  4.649125E-01
  4.717106E-01
  4.753174E-01
  4.795960E-01
  4.765522E-01
  4.731768E-01
  4.654560E-01
  4.626646E-01
  4.601608E-01
  4.640831E-01
  4.662658E-01
  4.708285E-01
  4.700404E-01
  4.705741E-01
  4.672591E-01
  4.674815E-01
  4.649350E-01
  4.655625E-01
  4.628506E-01
  4.636222E-01
  4.620950E-01
  4.647207E-01
  4.645067E-01
  4.670571E-01
  4.657537E-01
  4.674362E-01
  4.663609E-01
  4.690643E-01
  4.686915E-01
  4.710094E-01
  4.692955E-01
  4.699619E-01
  4.666467E-01
  4.657910E-01
  4.614408E-01
  4.610808E-01
  4.596982E-01
  4.642240E-01
  4.673620E-01
  4.733002E-01
  4.735372E-01
  4.739528E-01
  4.694443E-01
  4.684812E-01
  4.658674E-01
  4.676718E-01
  4.662409E-01
  4.669924E-01
  4.664027E-01
  4.687207E-01
  4.675343E-01
  4.677040E-01
  4.665062E-01
  4.680601E-01
  4.679697E-01
  4.692353E-01
  4.675278E-01
  4.667308E-01
  4.635218E-01
  4.624656E-01
  4.605403E-01
  4.621563E-01
  4.636067E-01
  4.681601E-01
  4.711063E-01
  4.755614E-01
  4.773089E-01
  4.797664E-01
  4.782304E-01
  4.757397E-01
  4.686131E-01
  4.624601E-01
  4.561767E-01
  4.556322E-01
  4.570748E-01
  4.621444E-01
  4.640657E-01
  4.649898E-01
  4.618871E-01
  4.610423E-01
  4.607493E-01
  4.650201E-01
  4.682900E-01
  4.719623E-01
  4.707996E-01
  4.691378E-01
  4.649992E-01
  4.640434E-01
  4.632312E-01
  4.659777E-01
  4.674156E-01
  4.703342E-01
  4.702826E-01
  4.709496E-01
  4.686686E-01
  4.676207E-01
  4.644275E-01
  4.634515E-01
  4.613975E-01
  4.623802E-01
  4.624979E-01
  4.651063E-01
  4.658274E-01
  4.680235E-01
  4.675088E-01
  4.677891E-01
  4.648772E-01
  4.630353E-01
  4.596259E-01
  4.598404E-01
  4.604528E-01
  4.644742E-01
  4.780255E-01
  4.762003E-01
  4.719259E-01
  4.687354E-01
  4.666874E-01
  4.666788E-01
  4.666144E-01
  4.668712E-01
  4.661014E-01
  4.656353E-01
  4.645767E-01
  4.642494E-01
  4.637300E-01
  4.644722E-01
  4.656352E-01
  4.684570E-01
  4.715817E-01
  4.756103E-01
  4.785455E-01
  4.804783E-01
  4.792712E-01
  4.757376E-01
  4.694980E-01
  4.634586E-01
  4.583428E-01
  4.562818E-01
  4.559387E-01
  4.575008E-01
  4.589893E-01
  4.613427E-01
  4.636490E-01
  4.669651E-01
  4.693326E-01
  4.707834E-01
  4.697289E-01
  4.680791E-01
  4.661547E-01
  4.661034E-01
  4.666236E-01
  4.679525E-01
  4.683300E-01
  4.691269E-01
  4.697957E-01
  4.714968E-01
  4.721412E-01
  4.716387E-01
  4.684070E-01
  4.644595E-01
  4.603291E-01
  4.587285E-01
  4.593381E-01
  4.631212E-01
  4.677595E-01
  4.724181E-01
  4.738249E-01
  4.718315E-01
  4.656720E-01
  4.586485E-01
  4.526580E-01
  4.513610E-01
  4.545055E-01
  4.620508E-01
  4.700578E-01
  4.764406E-01
  4.800568E-01
  4.796654E-01
  4.753265E-01
  4.693072E-01
  4.656112E-01
  4.648234E-01
  4.669735E-01
  4.691652E-01
  4.702186E-01
  4.685170E-01
  4.656145E-01
  4.624566E-01
  4.616437E-01
  4.631815E-01
  4.672145E-01
  4.710911E-01
  4.738473E-01
  4.742349E-01
  4.741561E-01
  4.740747E-01
  4.747664E-01
  4.738530E-01
  4.705636E-01
  4.642549E-01
  4.580001E-01
  4.537307E-01
  4.534990E-01
  4.554885E-01
  4.582606E-01
  4.594587E-01
  4.602878E-01
  4.616737E-01
  4.656598E-01
  4.707558E-01
  4.754666E-01
  4.766282E-01
  4.744004E-01
  4.693864E-01
  4.648591E-01
  4.619806E-01
  4.622512E-01
  4.643404E-01
  4.678227E-01
  4.703783E-01
  4.714833E-01
  4.696198E-01
  4.660032E-01
  4.613058E-01
  4.583540E-01
  4.579591E-01
  4.613231E-01
  4.664190E-01
  4.715884E-01
  4.735119E-01
  4.719560E-01
  4.670164E-01
  4.615663E-01
  4.565461E-01
  4.535967E-01
  4.523203E-01
  4.541710E-01
  4.589687E-01
  4.669586E-01
  4.748489E-01
  4.866835E-01
  4.817505E-01
  4.759751E-01
  4.682246E-01
  4.650489E-01
  4.624624E-01
  4.638540E-01
  4.635974E-01
  4.651190E-01
  4.638165E-01
  4.643518E-01
  4.629766E-01
  4.645366E-01
  4.647769E-01
  4.675442E-01
  4.676958E-01
  4.691072E-01
  4.676665E-01
  4.685231E-01
  4.679252E-01
  4.700009E-01
  4.694346E-01
  4.696514E-01
  4.662186E-01
  4.643850E-01
  4.608893E-01
  4.606114E-01
  4.591899E-01
  4.608914E-01
  4.616839E-01
  4.662313E-01
  4.697575E-01
  4.750645E-01
  4.758342E-01
  4.754982E-01
  4.705700E-01
  4.675700E-01
  4.638747E-01
  4.641482E-01
  4.633238E-01
  4.651358E-01
  4.653845E-01
  4.686735E-01
  4.700234E-01
  4.721228E-01
  4.690393E-01
  4.652071E-01
  4.582675E-01
  4.553436E-01
  4.541521E-01
  4.593160E-01
  4.650696E-01
  4.730573E-01
  4.760693E-01
  4.767514E-01
  4.708270E-01
  4.645158E-01
  4.562358E-01
  4.530197E-01
  4.523511E-01
  4.588876E-01
  4.669557E-01
  4.779565E-01
  4.839254E-01
  4.800707E-01
  4.767120E-01
  4.746493E-01
  4.662477E-01
  4.641570E-01
  4.600445E-01
  4.633040E-01
  4.624588E-01
  4.655959E-01
  4.622138E-01
  4.628281E-01
  4.591767E-01
  4.623657E-01
  4.626740E-01
  4.684425E-01
  4.675636E-01
  4.685212E-01
  4.622660E-01
  4.612842E-01
  4.583160E-01
  4.635842E-01
  4.652730E-01
  4.702799E-01
  4.672745E-01
  4.671931E-01
  4.625612E-01
  4.647468E-01
  4.635009E-01
  4.671029E-01
  4.648082E-01
  4.671983E-01
  4.660395E-01
  4.718948E-01
  4.736770E-01
  4.788307E-01
  4.754650E-01
  4.734550E-01
  4.647819E-01
  4.618718E-01
  4.568430E-01
  4.600754E-01
  4.611204E-01
  4.681596E-01
  4.692444E-01
  4.723951E-01
  4.670445E-01
  4.641550E-01
  4.562642E-01
  4.556804E-01
  4.541052E-01
  4.609515E-01
  4.644536E-01
  4.716366E-01
  4.706851E-01
  4.716062E-01
  4.664189E-01
  4.670639E-01
  4.643288E-01
  4.672068E-01
  4.649050E-01
  4.675404E-01
  4.665797E-01
  4.726264E-01
  4.746855E-01
  4.779397E-01
  4.715409E-01
  4.719398E-01
  4.643816E-01
  4.653192E-01
  4.592280E-01
  4.615690E-01
  4.565468E-01
  4.598350E-01
  4.560599E-01
  4.610704E-01
  4.592818E-01
  4.659248E-01
  4.644517E-01
  4.693688E-01
  4.641333E-01
  4.647623E-01
  4.570342E-01
  4.585165E-01
  4.548881E-01
  4.616569E-01
  4.619907E-01
  4.698890E-01
  4.685805E-01
  4.737520E-01
  4.701070E-01
  4.737480E-01
  4.690782E-01
  4.723104E-01
  4.686181E-01
  4.744615E-01
  4.736010E-01
  4.799326E-01
  4.755505E-01
  4.756560E-01
  4.659701E-01
  4.648909E-01
  4.585089E-01
  4.625052E-01
  4.602149E-01
  4.664271E-01
  4.653930E-01
  4.726771E-01
  4.714668E-01
  4.757103E-01
  4.684402E-01
  4.662998E-01
  4.561405E-01
  4.562976E-01
  4.525342E-01
  4.598835E-01
  4.610499E-01
  4.697455E-01
  4.690826E-01
  4.746802E-01
  4.713333E-01
  4.754142E-01
  4.714391E-01
  4.752539E-01
  4.712094E-01
  4.754805E-01
  4.725422E-01
  4.778483E-01
  4.746966E-01
  4.667758E-01
  4.651480E-01
  4.702271E-01
  4.649001E-01
  4.668994E-01
  4.609113E-01
  4.641205E-01
  4.595730E-01
  4.631783E-01
  4.581309E-01
  4.615575E-01
  4.578823E-01
  4.642393E-01
  4.634691E-01
  4.704207E-01
  4.663840E-01
  4.673176E-01
  4.580344E-01
  4.581085E-01
  4.535037E-01
  4.610345E-01
  4.621740E-01
  4.706865E-01
  4.683930E-01
  4.726749E-01
  4.685857E-01
  4.737685E-01
  4.708259E-01
  4.751217E-01
  4.695070E-01
  4.718227E-01
  4.670327E-01
  4.724252E-01
  4.702182E-01
  4.752146E-01
  4.693586E-01
  4.695934E-01
  4.608604E-01
  4.618207E-01
  4.573870E-01
  4.644304E-01
  4.654531E-01
  4.751252E-01
  4.743668E-01
  4.782524E-01
  4.700129E-01
  4.682791E-01
  4.590003E-01
  4.607260E-01