# vtk DataFile Version 2.0
title
ASCII
DATASET STRUCTURED_GRID
DIMENSIONS   64   64    1
POINTS   4096  float
  0.000000E+00  0.000000E+00  0.000000E+00
  0.000000E+00  3.906250E-01  0.000000E+00
  0.000000E+00  7.812500E-01  0.000000E+00
  0.000000E+00  1.171875E+00  0.000000E+00
  0.000000E+00  1.562500E+00  0.000000E+00
  0.000000E+00  1.953125E+00  0.000000E+00
  0.000000E+00  2.343750E+00  0.000000E+00
  0.000000E+00  2.734375E+00  0.000000E+00
  0.000000E+00  3.125000E+00  0.000000E+00
  0.000000E+00  3.515625E+00  0.000000E+00
  0.000000E+00  3.906250E+00  0.000000E+00
  0.000000E+00  4.296875E+00  0.000000E+00
  0.000000E+00  4.687500E+00  0.000000E+00
  0.000000E+00  5.078125E+00  0.000000E+00
  0.000000E+00  5.468750E+00  0.000000E+00
  0.000000E+00  5.859375E+00  0.000000E+00
  0.000000E+00  6.250000E+00  0.000000E+00
  0.000000E+00  6.640625E+00  0.000000E+00
  0.000000E+00  7.031250E+00  0.000000E+00
  0.000000E+00  7.421875E+00  0.000000E+00
  0.000000E+00  7.812500E+00  0.000000E+00
  0.000000E+00  8.203125E+00  0.000000E+00
  0.000000E+00  8.593750E+00  0.000000E+00
  0.000000E+00  8.984375E+00  0.000000E+00
  0.000000E+00  9.375000E+00  0.000000E+00
  0.000000E+00  9.765625E+00  0.000000E+00
  0.000000E+00  1.015625E+01  0.000000E+00
  0.000000E+00  1.054688E+01  0.000000E+00
  0.000000E+00  1.093750E+01  0.000000E+00
  0.000000E+00  1.132812E+01  0.000000E+00
  0.000000E+00  1.171875E+01  0.000000E+00
  0.000000E+00  1.210938E+01  0.000000E+00
  0.000000E+00  1.250000E+01  0.000000E+00
  0.000000E+00  1.289062E+01  0.000000E+00
  0.000000E+00  1.328125E+01  0.000000E+00
  0.000000E+00  1.367188E+01  0.000000E+00
  0.000000E+00  1.406250E+01  0.000000E+00
  0.000000E+00  1.445312E+01  0.000000E+00
  0.000000E+00  1.484375E+01  0.000000E+00
  0.000000E+00  1.523438E+01  0.000000E+00
  0.000000E+00  1.562500E+01  0.000000E+00
  0.000000E+00  1.601562E+01  0.000000E+00
  0.000000E+00  1.640625E+01  0.000000E+00
  0.000000E+00  1.679688E+01  0.000000E+00
  0.000000E+00  1.718750E+01  0.000000E+00
  0.000000E+00  1.757812E+01  0.000000E+00
  0.000000E+00  1.796875E+01  0.000000E+00
  0.000000E+00  1.835938E+01  0.000000E+00
  0.000000E+00  1.875000E+01  0.000000E+00
  0.000000E+00  1.914062E+01  0.000000E+00
  0.000000E+00  1.953125E+01  0.000000E+00
  0.000000E+00  1.992188E+01  0.000000E+00
  0.000000E+00  2.031250E+01  0.000000E+00
  0.000000E+00  2.070312E+01  0.000000E+00
  0.000000E+00  2.109375E+01  0.000000E+00
  0.000000E+00  2.148438E+01  0.000000E+00
  0.000000E+00  2.187500E+01  0.000000E+00
  0.000000E+00  2.226562E+01  0.000000E+00
  0.000000E+00  2.265625E+01  0.000000E+00
  0.000000E+00  2.304688E+01  0.000000E+00
  0.000000E+00  2.343750E+01  0.000000E+00
  0.000000E+00  2.382812E+01  0.000000E+00
  0.000000E+00  2.421875E+01  0.000000E+00
  0.000000E+00  2.460938E+01  0.000000E+00
  3.906250E-01  0.000000E+00  0.000000E+00
  3.906250E-01  3.906250E-01  0.000000E+00
  3.906250E-01  7.812500E-01  0.000000E+00
  3.906250E-01  1.171875E+00  0.000000E+00
  3.906250E-01  1.562500E+00  0.000000E+00
  3.906250E-01  1.953125E+00  0.000000E+00
  3.906250E-01  2.343750E+00  0.000000E+00
  3.906250E-01  2.734375E+00  0.000000E+00
  3.906250E-01  3.125000E+00  0.000000E+00
  3.906250E-01  3.515625E+00  0.000000E+00
  3.906250E-01  3.906250E+00  0.000000E+00
  3.906250E-01  4.296875E+00  0.000000E+00
  3.906250E-01  4.687500E+00  0.000000E+00
  3.906250E-01  5.078125E+00  0.000000E+00
  3.906250E-01  5.468750E+00  0.000000E+00
  3.906250E-01  5.859375E+00  0.000000E+00
  3.906250E-01  6.250000E+00  0.000000E+00
  3.906250E-01  6.640625E+00  0.000000E+00
  3.906250E-01  7.031250E+00  0.000000E+00
  3.906250E-01  7.421875E+00  0.000000E+00
  3.906250E-01  7.812500E+00  0.000000E+00
  3.906250E-01  8.203125E+00  0.000000E+00
  3.906250E-01  8.593750E+00  0.000000E+00
  3.906250E-01  8.984375E+00  0.000000E+00
  3.906250E-01  9.375000E+00  0.000000E+00
  3.906250E-01  9.765625E+00  0.000000E+00
  3.906250E-01  1.015625E+01  0.000000E+00
  3.906250E-01  1.054688E+01  0.000000E+00
  3.906250E-01  1.093750E+01  0.000000E+00
  3.906250E-01  1.132812E+01  0.000000E+00
  3.906250E-01  1.171875E+01  0.000000E+00
  3.906250E-01  1.210938E+01  0.000000E+00
  3.906250E-01  1.250000E+01  0.000000E+00
  3.906250E-01  1.289062E+01  0.000000E+00
  3.906250E-01  1.328125E+01  0.000000E+00
  3.906250E-01  1.367188E+01  0.000000E+00
  3.906250E-01  1.406250E+01  0.000000E+00
  3.906250E-01  1.445312E+01  0.000000E+00
  3.906250E-01  1.484375E+01  0.000000E+00
  3.906250E-01  1.523438E+01  0.000000E+00
  3.906250E-01  1.562500E+01  0.000000E+00
  3.906250E-01  1.601562E+01  0.000000E+00
  3.906250E-01  1.640625E+01  0.000000E+00
  3.906250E-01  1.679688E+01  0.000000E+00
  3.906250E-01  1.718750E+01  0.000000E+00
  3.906250E-01  1.757812E+01  0.000000E+00
  3.906250E-01  1.796875E+01  0.000000E+00
  3.906250E-01  1.835938E+01  0.000000E+00
  3.906250E-01  1.875000E+01  0.000000E+00
  3.906250E-01  1.914062E+01  0.000000E+00
  3.906250E-01  1.953125E+01  0.000000E+00
  3.906250E-01  1.992188E+01  0.000000E+00
  3.906250E-01  2.031250E+01  0.000000E+00
  3.906250E-01  2.070312E+01  0.000000E+00
  3.906250E-01  2.109375E+01  0.000000E+00
  3.906250E-01  2.148438E+01  0.000000E+00
  3.906250E-01  2.187500E+01  0.000000E+00
  3.906250E-01  2.226562E+01  0.000000E+00
  3.906250E-01  2.265625E+01  0.000000E+00
  3.906250E-01  2.304688E+01  0.000000E+00
  3.906250E-01  2.343750E+01  0.000000E+00
  3.906250E-01  2.382812E+01  0.000000E+00
  3.906250E-01  2.421875E+01  0.000000E+00
  3.906250E-01  2.460938E+01  0.000000E+00
  7.812500E-01  0.000000E+00  0.000000E+00
  7.812500E-01  3.906250E-01  0.000000E+00
  7.812500E-01  7.812500E-01  0.000000E+00
  7.812500E-01  1.171875E+00  0.000000E+00
  7.812500E-01  1.562500E+00  0.000000E+00
  7.812500E-01  1.953125E+00  0.000000E+00
  7.812500E-01  2.343750E+00  0.000000E+00
  7.812500E-01  2.734375E+00  0.000000E+00
  7.812500E-01  3.125000E+00  0.000000E+00
  7.812500E-01  3.515625E+00  0.000000E+00
  7.812500E-01  3.906250E+00  0.000000E+00
  7.812500E-01  4.296875E+00  0.000000E+00
  7.812500E-01  4.687500E+00  0.000000E+00
  7.812500E-01  5.078125E+00  0.000000E+00
  7.812500E-01  5.468750E+00  0.000000E+00
  7.812500E-01  5.859375E+00  0.000000E+00
  7.812500E-01  6.250000E+00  0.000000E+00
  7.812500E-01  6.640625E+00  0.000000E+00
  7.812500E-01  7.031250E+00  0.000000E+00
  7.812500E-01  7.421875E+00  0.000000E+00
  7.812500E-01  7.812500E+00  0.000000E+00
  7.812500E-01  8.203125E+00  0.000000E+00
  7.812500E-01  8.593750E+00  0.000000E+00
  7.812500E-01  8.984375E+00  0.000000E+00
  7.812500E-01  9.375000E+00  0.000000E+00
  7.812500E-01  9.765625E+00  0.000000E+00
  7.812500E-01  1.015625E+01  0.000000E+00
  7.812500E-01  1.054688E+01  0.000000E+00
  7.812500E-01  1.093750E+01  0.000000E+00
  7.812500E-01  1.132812E+01  0.000000E+00
  7.812500E-01  1.171875E+01  0.000000E+00
  7.812500E-01  1.210938E+01  0.000000E+00
  7.812500E-01  1.250000E+01  0.000000E+00
  7.812500E-01  1.289062E+01  0.000000E+00
  7.812500E-01  1.328125E+01  0.000000E+00
  7.812500E-01  1.367188E+01  0.000000E+00
  7.812500E-01  1.406250E+01  0.000000E+00
  7.812500E-01  1.445312E+01  0.000000E+00
  7.812500E-01  1.484375E+01  0.000000E+00
  7.812500E-01  1.523438E+01  0.000000E+00
  7.812500E-01  1.562500E+01  0.000000E+00
  7.812500E-01  1.601562E+01  0.000000E+00
  7.812500E-01  1.640625E+01  0.000000E+00
  7.812500E-01  1.679688E+01  0.000000E+00
  7.812500E-01  1.718750E+01  0.000000E+00
  7.812500E-01  1.757812E+01  0.000000E+00
  7.812500E-01  1.796875E+01  0.000000E+00
  7.812500E-01  1.835938E+01  0.000000E+00
  7.812500E-01  1.875000E+01  0.000000E+00
  7.812500E-01  1.914062E+01  0.000000E+00
  7.812500E-01  1.953125E+01  0.000000E+00
  7.812500E-01  1.992188E+01  0.000000E+00
  7.812500E-01  2.031250E+01  0.000000E+00
  7.812500E-01  2.070312E+01  0.000000E+00
  7.812500E-01  2.109375E+01  0.000000E+00
  7.812500E-01  2.148438E+01  0.000000E+00
  7.812500E-01  2.187500E+01  0.000000E+00
  7.812500E-01  2.226562E+01  0.000000E+00
  7.812500E-01  2.265625E+01  0.000000E+00
  7.812500E-01  2.304688E+01  0.000000E+00
  7.812500E-01  2.343750E+01  0.000000E+00
  7.812500E-01  2.382812E+01  0.000000E+00
  7.812500E-01  2.421875E+01  0.000000E+00
  7.812500E-01  2.460938E+01  0.000000E+00
  1.171875E+00  0.000000E+00  0.000000E+00
  1.171875E+00  3.906250E-01  0.000000E+00
  1.171875E+00  7.812500E-01  0.000000E+00
  1.171875E+00  1.171875E+00  0.000000E+00
  1.171875E+00  1.562500E+00  0.000000E+00
  1.171875E+00  1.953125E+00  0.000000E+00
  1.171875E+00  2.343750E+00  0.000000E+00
  1.171875E+00  2.734375E+00  0.000000E+00
  1.171875E+00  3.125000E+00  0.000000E+00
  1.171875E+00  3.515625E+00  0.000000E+00
  1.171875E+00  3.906250E+00  0.000000E+00
  1.171875E+00  4.296875E+00  0.000000E+00
  1.171875E+00  4.687500E+00  0.000000E+00
  1.171875E+00  5.078125E+00  0.000000E+00
  1.171875E+00  5.468750E+00  0.000000E+00
  1.171875E+00  5.859375E+00  0.000000E+00
  1.171875E+00  6.250000E+00  0.000000E+00
  1.171875E+00  6.640625E+00  0.000000E+00
  1.171875E+00  7.031250E+00  0.000000E+00
  1.171875E+00  7.421875E+00  0.000000E+00
  1.171875E+00  7.812500E+00  0.000000E+00
  1.171875E+00  8.203125E+00  0.000000E+00
  1.171875E+00  8.593750E+00  0.000000E+00
  1.171875E+00  8.984375E+00  0.000000E+00
  1.171875E+00  9.375000E+00  0.000000E+00
  1.171875E+00  9.765625E+00  0.000000E+00
  1.171875E+00  1.015625E+01  0.000000E+00
  1.171875E+00  1.054688E+01  0.000000E+00
  1.171875E+00  1.093750E+01  0.000000E+00
  1.171875E+00  1.132812E+01  0.000000E+00
  1.171875E+00  1.171875E+01  0.000000E+00
  1.171875E+00  1.210938E+01  0.000000E+00
  1.171875E+00  1.250000E+01  0.000000E+00
  1.171875E+00  1.289062E+01  0.000000E+00
  1.171875E+00  1.328125E+01  0.000000E+00
  1.171875E+00  1.367188E+01  0.000000E+00
  1.171875E+00  1.406250E+01  0.000000E+00
  1.171875E+00  1.445312E+01  0.000000E+00
[...]
POINT_DATA   4096
SCALARS CON  float  1
LOOKUP_TABLE default
  4.709956E-01
  4.702635E-01
  4.758485E-01
  4.735447E-01
  4.739350E-01
  4.674860E-01
  4.690255E-01
  4.679689E-01
  4.737061E-01
  4.717138E-01
  4.728147E-01
  4.670314E-01
  4.679277E-01
  4.645868E-01
  4.682232E-01
  4.669718E-01
  4.721377E-01
  4.712590E-01
  4.745983E-01
  4.699402E-01
  4.698508E-01
  4.643393E-01
  4.657385E-01
  4.620010E-01
  4.638661E-01
  4.599608E-01
  4.631144E-01
  4.630012E-01
  4.705122E-01
  4.713638E-01
  4.745157E-01
  4.685643E-01
  4.683462E-01
  4.652967E-01
  4.707719E-01
  4.701651E-01
  4.724716E-01
  4.664440E-01
  4.661367E-01
  4.618172E-01
  4.647968E-01
  4.622035E-01
  4.647508E-01
  4.610378E-01
  4.631911E-01
  4.604683E-01
  4.653809E-01
  4.669268E-01
  4.753406E-01
  4.757473E-01
  4.770290E-01
  4.681874E-01
  4.648675E-01
  4.597714E-01
  4.660419E-01
  4.704769E-01
  4.806451E-01
  4.810531E-01
  4.823878E-01
  4.752085E-01
  4.742929E-01
  4.693234E-01
  4.711999E-01
  4.676743E-01
  4.709010E-01
  4.717519E-01
  4.792692E-01
  4.793218E-01
  4.788961E-01
  4.698946E-01
  4.672252E-01
  4.641019E-01
  4.691402E-01
  4.691246E-01
  4.722249E-01
  4.693133E-01
  4.713640E-01
  4.681881E-01
  4.691534E-01
  4.653740E-01
  4.685978E-01
  4.692158E-01
  4.747809E-01
  4.725184E-01
  4.719032E-01
  4.653373E-01
  4.654230E-01
  4.630469E-01
  4.667035E-01
  4.648668E-01
  4.671568E-01
  4.649072E-01
  4.689951E-01
  4.689447E-01
  4.728530E-01
  4.697475E-01
  4.703740E-01
  4.664825E-01
  4.685330E-01
  4.658523E-01
  4.676006E-01
  4.643452E-01
  4.667956E-01
  4.647663E-01
  4.667344E-01
  4.621341E-01
  4.618394E-01
  4.575968E-01
  4.597921E-01
  4.583802E-01
  4.635137E-01
  4.661441E-01
  4.751800E-01
  4.770669E-01
  4.782599E-01
  4.695242E-01
  4.658981E-01
  4.626542E-01
  4.707006E-01
  4.766670E-01
  4.850542E-01
  4.825399E-01
  4.801553E-01
  4.719738E-01
  4.712976E-01
  4.683445E-01
  4.708926E-01
  4.679532E-01
  4.637961E-01
  4.708683E-01
  4.796608E-01
  4.816486E-01
  4.789466E-01
  4.708159E-01
  4.663516E-01
  4.644266E-01
  4.677514E-01
  4.696285E-01
  4.721580E-01
  4.714956E-01
  4.720886E-01
  4.702023E-01
  4.698379E-01
  4.679407E-01
  4.693429E-01
  4.701314E-01
  4.728148E-01
  4.720231E-01
  4.713846E-01
  4.680979E-01
  4.672757E-01
  4.654938E-01
  4.661918E-01
  4.649218E-01
  4.654266E-01
  4.642820E-01
  4.656259E-01
  4.651002E-01
  4.656775E-01
  4.634930E-01
  4.637943E-01
  4.641716E-01
  4.680972E-01
  4.694669E-01
  4.702421E-01
  4.669897E-01
  4.656505E-01
  4.635919E-01
  4.638760E-01
  4.612485E-01
  4.595032E-01
  4.562384E-01
  4.567789E-01
  4.578432E-01
  4.630888E-01
  4.680886E-01
  4.750826E-01
  4.774152E-01
  4.768831E-01
  4.706021E-01
  4.663911E-01
  4.642983E-01
  4.693334E-01
  4.754895E-01
  4.824892E-01
  4.828248E-01
  4.796357E-01
  4.713135E-01
  4.650462E-01
  4.590761E-01
  4.578722E-01
  4.579674E-01
  4.630995E-01
  4.715236E-01
  4.781531E-01
  4.823573E-01
  4.769793E-01
  4.694201E-01
  4.610849E-01
  4.601702E-01
  4.617076E-01
  4.672089E-01
  4.699556E-01
  4.737173E-01
  4.737195E-01
  4.738579E-01
  4.698184E-01
  4.679587E-01
  4.662220E-01
  4.696449E-01
  4.717621E-01
  4.743193E-01
  4.719208E-01
  4.704911E-01
  4.676601E-01
  4.687757E-01
  4.685694E-01
  4.699461E-01
  4.674890E-01
  4.661596E-01
  4.631146E-01
  4.641563E-01
  4.646839E-01
  4.676265E-01
  4.671030E-01
  4.674093E-01
  4.649060E-01
  4.649252E-01
  4.635882E-01
  4.657016E-01
  4.665269E-01
  4.690459E-01
  4.669725E-01
  4.646840E-01
  4.600505E-01
  4.601437E-01
  4.608674E-01
  4.648037E-01
  4.660045E-01
  4.693074E-01
  4.708591E-01
  4.738833E-01
  4.717693E-01
  4.690931E-01
  4.646485E-01
  4.664561E-01
  4.705625E-01
  4.782718E-01
  4.807386E-01
  4.801608E-01
  4.732245E-01
  4.676813E-01
  4.616913E-01
  4.602502E-01
  4.582725E-01
  4.602734E-01
  4.602812E-01
  4.710909E-01
  4.747606E-01
  4.789456E-01
  4.711800E-01
  4.667110E-01
  4.584297E-01
  4.602010E-01
  4.597866E-01
  4.667752E-01
  4.677384E-01
  4.731963E-01
  4.708570E-01
  4.725714E-01
  4.676549E-01
  4.692674E-01
  4.665968E-01
  4.709742E-01
  4.696386E-01
  4.734156E-01
  4.703957E-01
  4.724714E-01
  4.680631E-01
  4.691042E-01
  4.644269E-01
  4.661016E-01
  4.623452E-01
  4.644571E-01
  4.609293E-01
  4.639469E-01
  4.620208E-01
  4.661152E-01
  4.638658E-01
  4.670614E-01
  4.645945E-01
  4.681518E-01
  4.655882E-01
  4.684583E-01
  4.654732E-01
  4.682199E-01
  4.642382E-01
  4.650366E-01
  4.604284E-01
  4.640111E-01
  4.643744E-01
  4.709959E-01
  4.697758E-01
  4.721567E-01
  4.679154E-01
  4.697533E-01
  4.656262E-01
  4.667864E-01
  4.623512E-01
  4.654028E-01
  4.649527E-01
  4.717506E-01
  4.721786E-01
  4.761576E-01
  4.712590E-01
  4.698304E-01
  4.615618E-01
  4.596768E-01
  4.541266E-01
  4.579738E-01
  4.651625E-01
  4.719292E-01
  4.721469E-01
  4.760077E-01
  4.683321E-01
  4.648481E-01
  4.558921E-01
  4.574821E-01
  4.561383E-01
  4.636462E-01
  4.647403E-01
  4.715431E-01
  4.693935E-01
  4.715527E-01
  4.655195E-01
  4.671173E-01
  4.645974E-01
  4.712478E-01
  4.713770E-01
  4.764000E-01
  4.720652E-01
  4.728977E-01
  4.665530E-01
  4.675257E-01
  4.627166E-01
  4.655631E-01
  4.619197E-01
  4.648203E-01
  4.613856E-01
  4.664893E-01
  4.668220E-01
  4.738092E-01
  4.710041E-01
  4.713461E-01
  4.635274E-01
  4.642109E-01
  4.613729E-01
  4.678213E-01
  4.678940E-01
  4.727275E-01
  4.675177E-01
  4.673208E-01
  4.621986E-01
  4.682849E-01
  4.707072E-01
  4.783974E-01
  4.742388E-01
  4.729681E-01
  4.648556E-01
  4.658539E-01
  4.617337E-01
  4.644913E-01
  4.606629E-01
  4.649450E-01
  4.640666E-01
  4.700684E-01
  4.676681E-01
  4.702322E-01
  4.655070E-01
  4.683878E-01
  4.653351E-01
  4.688660E-01
  4.647818E-01
  4.674733E-01
  4.645489E-01
  4.697840E-01
  4.694050E-01
  4.719403E-01
  4.665853E-01
  4.655550E-01
  4.601888E-01
  4.618682E-01
  4.601015E-01
  4.649122E-01
  4.648973E-01
  4.692675E-01
  4.665707E-01
  4.678698E-01
  4.643238E-01
  4.679483E-01
  4.681794E-01
  4.741156E-01
  4.736132E-01
  4.766514E-01
  4.728316E-01
  4.729653E-01
  4.664310E-01
  4.643849E-01
  4.579443E-01
  4.592183E-01
  4.578371E-01
  4.629182E-01
  4.627950E-01
  4.679675E-01
  4.680997E-01
  4.728429E-01
  4.703159E-01
  4.713035E-01
  4.670746E-01
  4.696906E-01
  4.683123E-01
  4.720907E-01
  4.694299E-01
  4.706598E-01
  4.655577E-01
  4.658258E-01
  4.628696E-01
  4.685943E-01
  4.714065E-01
  4.782482E-01
  4.753041E-01
  4.735681E-01
  4.657903E-01
  4.654221E-01
  4.621365E-01
  4.648449E-01
  4.618397E-01
  4.637617E-01
  4.608035E-01
  4.638100E-01
  4.621949E-01
  4.663552E-01
  4.655830E-01
  4.698685E-01
  4.677983E-01
  4.694348E-01
  4.648664E-01
  4.662976E-01
  4.668552E-01
  4.674737E-01
  4.675071E-01
  4.703502E-01
  4.690240E-01
  4.684929E-01
  4.648049E-01
  4.645373E-01
  4.632282E-01
  4.659001E-01
  4.666607E-01
  4.695370E-01
  4.683412E-01
  4.682433E-01
  4.654476E-01
  4.670796E-01
  4.689057E-01
  4.749243E-01
  4.773203E-01
  4.791973E-01
  4.751773E-01
  4.718756E-01
  4.657493E-01
  4.632380E-01
  4.600835E-01
  4.617179E-01
  4.622521E-01
  4.655386E-01
  4.660825E-01
  4.700414E-01
  4.727649E-01
  4.776992E-01
  4.768565E-01
  4.748514E-01
  4.691589E-01
  4.683466E-01
  4.682701E-01
  4.723925E-01
  4.729453E-01
  4.735103E-01
  4.690875E-01
  4.668966E-01
  4.645905E-01
  4.686906E-01
  4.721964E-01
  4.763182E-01
  4.734577E-01
  4.704302E-01
  4.656829E-01
  4.661732E-01
  4.654672E-01
  4.667576E-01
  4.647539E-01
  4.659484E-01
  4.656471E-01
  4.676957E-01
  4.655289E-01
  4.648706E-01
  4.627934E-01
  4.660268E-01
  4.685625E-01
  4.729162E-01
  4.718009E-01
  4.707302E-01
  4.618415E-01
  4.630991E-01
  4.650625E-01
  4.680869E-01
  4.699382E-01
  4.716526E-01
  4.716731E-01
  4.715537E-01
  4.705117E-01
  4.706870E-01
  4.706377E-01
  4.708403E-01
  4.691687E-01
  4.676965E-01
  4.666979E-01
  4.687200E-01
  4.718342E-01
  4.756307E-01
  4.769350E-01
  4.765807E-01
  4.736967E-01
  4.705326E-01
  4.662471E-01
  4.629989E-01
  4.606730E-01
  4.616883E-01
  4.641238E-01
  4.674430E-01
  4.687366E-01
  4.697051E-01
  4.700838E-01
  4.714837E-01
  4.717299E-01
  4.721438E-01
  4.723408E-01
  4.742885E-01
  4.753966E-01
  4.752701E-01
  4.720914E-01
  4.686868E-01
  4.654234E-01
  4.646039E-01
  4.647923E-01
  4.668422E-01
  4.683435E-01
  4.694960E-01
  4.684417E-01
  4.676046E-01
  4.671114E-01
  4.687057E-01
  4.696761E-01
  4.700062E-01
  4.683964E-01
  4.676682E-01
  4.673706E-01
  4.683689E-01
  4.680455E-01
  4.674918E-01
  4.661777E-01
  4.663765E-01
  4.663993E-01
  4.665164E-01
  4.646972E-01
  4.631148E-01
  4.621555E-01
  4.614527E-01
  4.637876E-01
  4.678892E-01
  4.714211E-01
  4.730147E-01
  4.727102E-01
  4.716943E-01
  4.710435E-01
  4.713649E-01
  4.722698E-01
  4.728281E-01
  4.719766E-01
  4.697515E-01
  4.673661E-01
  4.667555E-01
  4.688387E-01
  4.727241E-01
  4.758185E-01
  4.759651E-01
  4.728933E-01
  4.684971E-01
  4.650114E-01
  4.639439E-01
  4.654506E-01
  4.687034E-01
  4.717929E-01
  4.729221E-01
  4.717580E-01
  4.701939E-01
  4.701438E-01
  4.715557E-01
  4.724417E-01
  4.717304E-01
  4.704058E-01
  4.702547E-01
  4.712964E-01
  4.720000E-01
  4.709306E-01
  4.684304E-01
  4.658902E-01
  4.647876E-01
  4.654855E-01
  4.671650E-01
  4.680417E-01
  4.671025E-01
  4.651621E-01
  4.646250E-01
  4.668124E-01
  4.704503E-01
  4.725059E-01
  4.716762E-01
  4.697388E-01
  4.697667E-01
  4.723614E-01
  4.750070E-01
  4.745007E-01
  4.706607E-01
  4.663353E-01
  4.646752E-01
  4.659547E-01
  4.678515E-01
  4.676686E-01
  4.650996E-01
  4.588029E-01
  4.603748E-01
  4.628467E-01
  4.667768E-01
  4.697458E-01
  4.724720E-01
  4.729780E-01
  4.729353E-01
  4.718020E-01
  4.720709E-01
  4.722047E-01
  4.725273E-01
  4.705735E-01
  4.683568E-01
  4.660816E-01
  4.665781E-01
  4.682702E-01
  4.713298E-01
  4.726872E-01
  4.728808E-01
  4.704623E-01
  4.677950E-01
  4.645997E-01
  4.636040E-01
  4.642847E-01
  4.680965E-01
  4.718980E-01
  4.745541E-01
  4.730163E-01
  4.697446E-01
  4.657401E-01
  4.643180E-01
  4.642395E-01
  4.664924E-01
  4.690722E-01
  4.724533E-01
  4.732871E-01
  4.716126E-01
  4.666200E-01
  4.625272E-01
  4.604268E-01
  4.621966E-01
  4.645480E-01
  4.666510E-01
  4.660160E-01
  4.650217E-01
  4.640818E-01
  4.660504E-01
  4.691094E-01
  4.727418E-01
  4.732465E-01
  4.716889E-01
  4.684747E-01
  4.677053E-01
  4.689189E-01
  4.722377E-01
  4.737844E-01
  4.738092E-01
  4.714414E-01
  4.694823E-01
  4.669584E-01
  4.650069E-01
  4.619573E-01
  4.600071E-01
  4.620713E-01
  4.624347E-01
  4.634532E-01
  4.678094E-01
  4.695680E-01
  4.713094E-01
  4.691922E-01
  4.684266E-01
  4.665269E-01
  4.681369E-01
  4.688506E-01
  4.711920E-01
  4.698359E-01
  4.685145E-01
  4.646284E-01
  4.641878E-01
  4.646355E-01
  4.694024E-01
  4.722797E-01
  4.746294E-01
  4.715271E-01
  4.683032E-01
  4.636675E-01
  4.637108E-01
  4.650936E-01
  4.705730E-01
  4.738242E-01
  4.763984E-01
  4.736613E-01
  4.712446E-01
  4.676410E-01
  4.677250E-01
  4.666097E-01
  4.671062E-01
  4.654726E-01
  4.665158E-01
  4.662926E-01
  4.675901E-01
  4.655733E-01
  4.646616E-01
  4.623887E-01
  4.637938E-01
  4.647996E-01
  4.679450E-01
  4.677869E-01
  4.680328E-01
  4.662003E-01
  4.680089E-01
  4.696261E-01
  4.728513E-01
  4.713050E-01
  4.689304E-01
  4.646243E-01
  4.654015E-01
  4.677545E-01
  4.730099E-01
  4.741344E-01
  4.742942E-01
  4.712988E-01
  4.711423E-01
  4.701404E-01
  4.708451E-01
  4.680114E-01
  4.658279E-01
  4.606160E-01
  4.634411E-01
  4.639357E-01
  4.675607E-01
  4.679924E-01
  4.706342E-01
  4.688578E-01
  4.688259E-01
  4.657534E-01
  4.668921E-01
  4.662267E-01
  4.683731E-01
  4.661665E-01
  4.659929E-01
  4.634080E-01
  4.655021E-01
  4.661374E-01
  4.703392E-01
  4.711499E-01
  4.737966E-01
  4.716356E-01
  4.705456E-01
  4.653133E-01
  4.636237E-01
  4.612939E-01
  4.649887E-01
  4.675904E-01
  4.725578E-01
  4.717360E-01
  4.710077E-01
  4.661229E-01
  4.650977E-01
  4.628935E-01
  4.653507E-01
  4.658369E-01
  4.693138E-01
  4.684947E-01
  4.685776E-01
  4.641956E-01
  4.631768E-01
  4.611190E-01
  4.640104E-01
  4.645397E-01
  4.673362E-01
  4.662001E-01
  4.679553E-01
  4.674590E-01
  4.706333E-01
  4.704239E-01
  4.715762E-01
  4.676891E-01
  4.657450E-01
  4.615343E-01
  4.624229E-01
  4.626826E-01
  4.674515E-01
  4.695431E-01
  4.739433E-01
  4.738935E-01
  4.748588E-01
  4.707143E-01
  4.682414E-01
  4.629564E-01
  4.622561E-01
  4.650740E-01
  4.659072E-01
  4.654183E-01
  4.683089E-01
  4.686627E-01
  4.701479E-01
  4.674635E-01
  4.663384E-01
  4.633195E-01
  4.642437E-01
  4.640453E-01
  4.665023E-01
  4.656570E-01
  4.662310E-01
  4.641516E-01
  4.654070E-01
  4.657624E-01
  4.699107E-01
  4.719512E-01
  4.752994E-01
  4.738136E-01
  4.723011E-01
  4.670868E-01
  4.649489E-01
  4.624341E-01
  4.646898E-01
  4.659222E-01
  4.694577E-01
  4.692724E-01
  4.703777E-01
  4.688290E-01
  4.700351E-01
  4.685522E-01
  4.685338E-01
  4.653405E-01
  4.650436E-01
  4.636932E-01
  4.660251E-01
  4.662245E-01
  4.682809E-01
  4.670007E-01
  4.676644E-01
  4.661410E-01
  4.677775E-01
  4.674179E-01
  4.692849E-01
  4.681571E-01
  4.691116E-01
  4.673259E-01
  4.672872E-01
  4.638730E-01
  4.628273E-01
  4.609054E-01
  4.638710E-01
  4.659849E-01
  4.701755E-01
  4.702472E-01
  4.713366E-01
  4.695697E-01
  4.704452E-01
  4.689086E-01
  4.695228E-01
  4.673128E-01
  4.673438E-01
  4.659067E-01
  4.673345E-01
  4.667944E-01
  4.668621E-01
  4.673741E-01
  4.691175E-01
  4.694567E-01
  4.688966E-01
  4.668973E-01
  4.658808E-01
  4.649520E-01
  4.647834E-01
  4.639138E-01
  4.643394E-01
  4.656302E-01
  4.685335E-01
  4.703275E-01
  4.714504E-01
  4.714333E-01
  4.725990E-01
  4.733962E-01
  4.733938E-01
  4.701105E-01
  4.654814E-01
  4.605984E-01
  4.589431E-01
  4.599160E-01
  4.633610E-01
  4.656989E-01
  4.666536E-01
  4.653945E-01
  4.648038E-01
  4.648998E-01
  4.668188E-01
  4.682519E-01
  4.693380E-01
  4.684728E-01
  4.674296E-01
  4.660196E-01
  4.661965E-01
  4.665124E-01
  4.673170E-01
  4.668122E-01
  4.665864E-01
  4.661885E-01
  4.670563E-01
  4.672736E-01
  4.671769E-01
  4.653095E-01
  4.636191E-01
  4.620531E-01
  4.626824E-01
  4.641385E-01
  4.665692E-01
  4.675915E-01
  4.681835E-01
  4.677948E-01
  4.681972E-01
  4.676890E-01
  4.666096E-01
  4.637980E-01
  4.619854E-01
  4.615633E-01
  4.638269E-01
  4.737784E-01
  4.714706E-01
  4.692951E-01
  4.668927E-01
  4.674206E-01
  4.673760E-01
  4.681741E-01
  4.670316E-01
  4.669480E-01
  4.657367E-01
  4.658684E-01
  4.646806E-01
  4.650176E-01
  4.649588E-01
  4.672881E-01
  4.688729E-01
  4.712689E-01
  4.715373E-01
  4.727409E-01
  4.728525E-01
  4.740220E-01
  4.726202E-01
  4.706052E-01
  4.660510E-01
  4.629915E-01
  4.602764E-01
  4.609141E-01
  4.616990E-01
  4.638951E-01
  4.642515E-01
  4.657196E-01
  4.665031E-01
  4.689511E-01
  4.693218E-01
  4.692324E-01
  4.666149E-01
  4.656028E-01
  4.649624E-01
  4.671801E-01
  4.683847E-01
  4.696794E-01
  4.683120E-01
  4.680384E-01
  4.675585E-01
  4.691627E-01
  4.687263E-01
  4.676814E-01
  4.641082E-01
  4.622315E-01
  4.607180E-01
  4.622899E-01
  4.641515E-01
  4.683850E-01
  4.713518E-01
  4.738392E-01
  4.720097E-01
  4.688202E-01
  4.635525E-01
  4.606139E-01
  4.584975E-01
  4.601037E-01
  4.628462E-01
  4.682873E-01
  4.717795E-01
  4.762540E-01
  4.744614E-01
  4.709142E-01
  4.660440E-01
  4.652957E-01
  4.656006E-01
  4.682112E-01
  4.686304E-01
  4.694925E-01
  4.680265E-01
  4.672597E-01
  4.643256E-01
  4.632746E-01
  4.628638E-01
  4.667831E-01
  4.704103E-01
  4.738239E-01
  4.726350E-01
  4.713702E-01
  4.696159E-01
  4.711404E-01
  4.711843E-01
  4.704476E-01
  4.654955E-01
  4.612583E-01
  4.574507E-01
  4.583983E-01
  4.601256E-01
  4.630888E-01
  4.625444E-01
  4.621797E-01
  4.614255E-01
  4.648367E-01
  4.684893E-01
  4.727313E-01
  4.725218E-01
  4.709765E-01
  4.669290E-01
  4.653181E-01
  4.639253E-01
  4.652444E-01
  4.654440E-01
  4.671948E-01
  4.676194E-01
  4.694299E-01
  4.686720E-01
  4.676115E-01
  4.637953E-01
  4.619008E-01
  4.606036E-01
  4.634551E-01
  4.666829E-01
  4.714300E-01
  4.726314E-01
  4.722031E-01
  4.678638E-01
  4.645892E-01
  4.608979E-01
  4.598313E-01
  4.579096E-01
  4.585573E-01
  4.602126E-01
  4.663250E-01
  4.718632E-01
  4.811730E-01
  4.770243E-01
  4.719718E-01
  4.670099E-01
  4.653272E-01
  4.642750E-01
  4.649265E-01
  4.648948E-01
  4.660742E-01
  4.660002E-01
  4.661006E-01
  4.643324E-01
  4.636047E-01
  4.631290E-01
  4.653917E-01
  4.675097E-01
  4.699087E-01
  4.696590E-01
  4.693497E-01
  4.682105E-01
  4.688390E-01
  4.686177E-01
  4.685342E-01
  4.661900E-01
  4.643724E-01
  4.624069E-01
  4.630794E-01
  4.638075E-01
  4.652098E-01
  4.646770E-01
  4.653247E-01
  4.666603E-01
  4.705432E-01
  4.727681E-01
  4.731975E-01
  4.698774E-01
  4.670522E-01
  4.648284E-01
  4.654966E-01
  4.657091E-01
  4.663006E-01
  4.656130E-01
  4.670687E-01
  4.690968E-01
  4.719722E-01
  4.710697E-01
  4.677760E-01
  4.623535E-01
  4.599753E-01
  4.600203E-01
  4.636252E-01
  4.670689E-01
  4.710143E-01
  4.724329E-01
  4.725089E-01
  4.690556E-01
  4.651844E-01
  4.606762E-01
  4.589629E-01
  4.587027E-01
  4.622231E-01
  4.674219E-01
  4.749126E-01
  4.797332E-01
  4.765128E-01
  4.741838E-01
  4.709087E-01
  4.659748E-01
  4.645726E-01
  4.635532E-01
  4.649997E-01
  4.646822E-01
  4.656380E-01
  4.647342E-01
  4.649847E-01
  4.629347E-01
  4.624405E-01
  4.616462E-01
  4.644772E-01
  4.664707E-01
  4.684812E-01
  4.661263E-01
  4.641556E-01
  4.620776E-01
  4.643938E-01
  4.664941E-01
  4.689434E-01
  4.670521E-01
  4.651712E-01
  4.626060E-01
  4.641828E-01
  4.657825E-01
  4.681628E-01
  4.666339E-01
  4.657412E-01
  4.649468E-01
  4.686287E-01
  4.718032E-01
  4.748041E-01
  4.729313E-01
  4.703739E-01
  4.658558E-01
  4.640222E-01
  4.620207E-01
  4.629416E-01
  4.634088E-01
  4.664678E-01
  4.681858E-01
  4.704492E-01
  4.687384E-01
  4.663625E-01
  4.617276E-01
  4.601948E-01
  4.597132E-01
  4.631589E-01
  4.658486E-01
  4.692138E-01
  4.687484E-01
  4.678093E-01
  4.647510E-01
  4.647607E-01
  4.651305E-01
  4.677338E-01
  4.676460E-01
  4.681460E-01
  4.677518E-01
  4.710480E-01
  4.737809E-01
  4.742123E-01
  4.700217E-01
  4.698495E-01
  4.660061E-01
  4.669046E-01
  4.635069E-01
  4.640880E-01
  4.606004E-01
  4.620304E-01
  4.601050E-01
  4.630429E-01
  4.620505E-01
  4.652865E-01
  4.640811E-01
  4.666619E-01
  4.642358E-01
  4.650823E-01
  4.610573E-01
  4.616273E-01
  4.595313E-01
  4.636496E-01
  4.647652E-01
  4.697195E-01
  4.688048E-01
  4.707303E-01
  4.683151E-01
  4.709993E-01
  4.698217E-01
  4.720908E-01
  4.691864E-01
  4.710698E-01
  4.704552E-01
  4.748343E-01
  4.731132E-01
  4.724408E-01
  4.658242E-01
  4.646931E-01
  4.620902E-01
  4.655276E-01
  4.646123E-01
  4.669570E-01
  4.649828E-01
  4.684483E-01
  4.686890E-01
  4.721842E-01
  4.684604E-01
  4.663419E-01
  4.598992E-01
  4.600526E-01
  4.588072E-01
  4.632585E-01
  4.635272E-01
  4.675054E-01
  4.667395E-01
  4.697912E-01
  4.683875E-01
  4.714752E-01
  4.708086E-01
  4.744199E-01
  4.730137E-01
  4.750518E-01
  4.727386E-01
  4.750757E-01
  4.730319E-01
  4.664565E-01
  4.649936E-01
  4.687344E-01
  4.654000E-01
  4.680039E-01
  4.645816E-01
  4.670356E-01
  4.626823E-01
  4.641309E-01
  4.600365E-01
  4.632523E-01
  4.614097E-01
  4.662533E-01
  4.651033E-01
  4.697098E-01
  4.667839E-01
  4.677635E-01
  4.608463E-01
  4.605265E-01
  4.570721E-01
  4.633257E-01
  4.650962E-01
  4.715558E-01
  4.687900E-01
  4.703022E-01
  4.663544E-01
  4.705798E-01
  4.695172E-01
  4.732476E-01
  4.687055E-01
  4.698353E-01
  4.663699E-01
  4.707250E-01
  4.688087E-01
  4.714187E-01
  4.664480E-01
  4.674452E-01
  4.629269E-01
  4.651852E-01
  4.619635E-01
  4.658717E-01
  4.648100E-01
  4.704005E-01
  4.690412E-01
  4.719850E-01
  4.668791E-01
  4.671096E-01
  4.617283E-01
  4.637787E-01