# vtk DataFile Version 2.0
title
ASCII
DATASET STRUCTURED_GRID
DIMENSIONS   64   64    1
POINTS   4096  float
  0.000000E+00  0.000000E+00  0.000000E+00
  0.000000E+00  3.906250E-01  0.000000E+00
  0.000000E+00  7.812500E-01  0.000000E+00
  0.000000E+00  1.171875E+00  0.000000E+00
  0.000000E+00  1.562500E+00  0.000000E+00
  0.000000E+00  1.953125E+00  0.000000E+00
  0.000000E+00  2.343750E+00  0.000000E+00
  0.000000E+00  2.734375E+00  0.000000E+00
  0.000000E+00  3.125000E+00  0.000000E+00
  0.000000E+00  3.515625E+00  0.000000E+00
  0.000000E+00  3.906250E+00  0.000000E+00
  0.000000E+00  4.296875E+00  0.000000E+00
  0.000000E+00  4.687500E+00  0.000000E+00
  0.000000E+00  5.078125E+00  0.000000E+00
  0.000000E+00  5.468750E+00  0.000000E+00
  0.000000E+00  5.859375E+00  0.000000E+00
  0.000000E+00  6.250000E+00  0.000000E+00
  0.000000E+00  6.640625E+00  0.000000E+00
  0.000000E+00  7.031250E+00  0.000000E+00
  0.000000E+00  7.421875E+00  0.000000E+00
  0.000000E+00  7.812500E+00  0.000000E+00
  0.000000E+00  8.203125E+00  0.000000E+00
  0.000000E+00  8.593750E+00  0.000000E+00
  0.000000E+00  8.984375E+00  0.000000E+00
  0.000000E+00  9.375000E+00  0.000000E+00
  0.000000E+00  9.765625E+00  0.000000E+00
  0.000000E+00  1.015625E+01  0.000000E+00
  0.000000E+00  1.054688E+01  0.000000E+00
  0.000000E+00  1.093750E+01  0.000000E+00
  0.000000E+00  1.132812E+01  0.000000E+00
  0.000000E+00  1.171875E+01  0.000000E+00
  0.000000E+00  1.210938E+01  0.000000E+00
  0.000000E+00  1.250000E+01  0.000000E+00
  0.000000E+00  1.289062E+01  0.000000E+00
  0.000000E+00  1.328125E+01  0.000000E+00
  0.000000E+00  1.367188E+01  0.000000E+00
  0.000000E+00  1.406250E+01  0.000000E+00
  0.000000E+00  1.445312E+01  0.000000E+00
  0.000000E+00  1.484375E+01  0.000000E+00
  0.000000E+00  1.523438E+01  0.000000E+00
  0.000000E+00  1.562500E+01  0.000000E+00
  0.000000E+00  1.601562E+01  0.000000E+00
  0.000000E+00  1.640625E+01  0.000000E+00
  0.000000E+00  1.679688E+01  0.000000E+00
  0.000000E+00  1.718750E+01  0.000000E+00
  0.000000E+00  1.757812E+01  0.000000E+00
  0.000000E+00  1.796875E+01  0.000000E+00
  0.000000E+00  1.835938E+01  0.000000E+00
  0.000000E+00  1.875000E+01  0.000000E+00
  0.000000E+00  1.914062E+01  0.000000E+00
  0.000000E+00  1.953125E+01  0.000000E+00
  0.000000E+00  1.992188E+01  0.000000E+00
  0.000000E+00  2.031250E+01  0.000000E+00
  0.000000E+00  2.070312E+01  0.000000E+00
  0.000000E+00  2.109375E+01  0.000000E+00
  0.000000E+00  2.148438E+01  0.000000E+00
  0.000000E+00  2.187500E+01  0.000000E+00
  0.000000E+00  2.226562E+01  0.000000E+00
  0.000000E+00  2.265625E+01  0.000000E+00
  0.000000E+00  2.304688E+01  0.000000E+00
  0.000000E+00  2.343750E+01  0.000000E+00
  0.000000E+00  2.382812E+01  0.000000E+00
  0.000000E+00  2.421875E+01  0.000000E+00
  0.000000E+00  2.460938E+01  0.000000E+00
  3.906250E-01  0.000000E+00  0.000000E+00
  3.906250E-01  3.906250E-01  0.000000E+00
  3.906250E-01  7.812500E-01  0.000000E+00
  3.906250E-01  1.171875E+00  0.000000E+00
  3.906250E-01  1.562500E+00  0.000000E+00
  3.906250E-01  1.953125E+00  0.000000E+00
  3.906250E-01  2.343750E+00  0.000000E+00
  3.906250E-01  2.734375E+00  0.000000E+00
  3.906250E-01  3.125000E+00  0.000000E+00
  3.906250E-01  3.515625E+00  0.000000E+00
  3.906250E-01  3.906250E+00  0.000000E+00
  3.906250E-01  4.296875E+00  0.000000E+00
  3.906250E-01  4.687500E+00  0.000000E+00
  3.906250E-01  5.078125E+00  0.000000E+00
  3.906250E-01  5.468750E+00  0.000000E+00
  3.906250E-01  5.859375E+00  0.000000E+00
  3.906250E-01  6.250000E+00  0.000000E+00
  3.906250E-01  6.640625E+00  0.000000E+00
  3.906250E-01  7.031250E+00  0.000000E+00
  3.906250E-01  7.421875E+00  0.000000E+00
  3.906250E-01  7.812500E+00  0.000000E+00
  3.906250E-01  8.203125E+00  0.000000E+00
  3.906250E-01  8.593750E+00  0.000000E+00
  3.906250E-01  8.984375E+00  0.000000E+00
  3.906250E-01  9.375000E+00  0.000000E+00
  3.906250E-01  9.765625E+00  0.000000E+00
  3.906250E-01  1.015625E+01  0.000000E+00
  3.906250E-01  1.054688E+01  0.000000E+00
  3.906250E-01  1.093750E+01  0.000000E+00
  3.906250E-01  1.132812E+01  0.000000E+00
  3.906250E-01  1.171875E+01  0.000000E+00
  3.906250E-01  1.210938E+01  0.000000E+00
  3.906250E-01  1.250000E+01  0.000000E+00
  3.906250E-01  1.289062E+01  0.000000E+00
  3.906250E-01  1.328125E+01  0.000000E+00
  3.906250E-01  1.367188E+01  0.000000E+00
  3.906250E-01  1.406250E+01  0.000000E+00
  3.906250E-01  1.445312E+01  0.000000E+00
  3.906250E-01  1.484375E+01  0.000000E+00
  3.906250E-01  1.523438E+01  0.000000E+00
  3.906250E-01  1.562500E+01  0.000000E+00
  3.906250E-01  1.601562E+01  0.000000E+00
  3.906250E-01  1.640625E+01  0.000000E+00
  3.906250E-01  1.679688E+01  0.000000E+00
  3.906250E-01  1.718750E+01  0.000000E+00
  3.906250E-01  1.757812E+01  0.000000E+00
  3.906250E-01  1.796875E+01  0.000000E+00
  3.906250E-01  1.835938E+01  0.000000E+00
  3.906250E-01  1.875000E+01  0.000000E+00
  3.906250E-01  1.914062E+01  0.000000E+00
  3.906250E-01  1.953125E+01  0.000000E+00
  3.906250E-01  1.992188E+01  0.000000E+00
  3.906250E-01  2.031250E+01  0.000000E+00
  3.906250E-01  2.070312E+01  0.000000E+00
  3.906250E-01  2.109375E+01  0.000000E+00
  3.906250E-01  2.148438E+01  0.000000E+00
  3.906250E-01  2.187500E+01  0.000000E+00
  3.906250E-01  2.226562E+01  0.000000E+00
  3.906250E-01  2.265625E+01  0.000000E+00
  3.906250E-01  2.304688E+01  0.000000E+00
  3.906250E-01  2.343750E+01  0.000000E+00
  3.906250E-01  2.382812E+01  0.000000E+00
  3.906250E-01  2.421875E+01  0.000000E+00
  3.906250E-01  2.460938E+01  0.000000E+00
  7.812500E-01  0.000000E+00  0.000000E+00
  7.812500E-01  3.906250E-01  0.000000E+00
  7.812500E-01  7.812500E-01  0.000000E+00
  7.812500E-01  1.171875E+00  0.000000E+00
  7.812500E-01  1.562500E+00  0.000000E+00
  7.812500E-01  1.953125E+00  0.000000E+00
  7.812500E-01  2.343750E+00  0.000000E+00
  7.812500E-01  2.734375E+00  0.000000E+00
  7.812500E-01  3.125000E+00  0.000000E+00
  7.812500E-01  3.515625E+00  0.000000E+00
  7.812500E-01  3.906250E+00  0.000000E+00
  7.812500E-01  4.296875E+00  0.000000E+00
  7.812500E-01  4.687500E+00  0.000000E+00
  7.812500E-01  5.078125E+00  0.000000E+00
  7.812500E-01  5.468750E+00  0.000000E+00
  7.812500E-01  5.859375E+00  0.000000E+00
  7.812500E-01  6.250000E+00  0.000000E+00
  7.812500E-01  6.640625E+00  0.000000E+00
  7.812500E-01  7.031250E+00  0.000000E+00
  7.812500E-01  7.421875E+00  0.000000E+00
  7.812500E-01  7.812500E+00  0.000000E+00
  7.812500E-01  8.203125E+00  0.000000E+00
  7.812500E-01  8.593750E+00  0.000000E+00
  7.812500E-01  8.984375E+00  0.000000E+00
  7.812500E-01  9.375000E+00  0.000000E+00
  7.812500E-01  9.765625E+00  0.000000E+00
  7.812500E-01  1.015625E+01  0.000000E+00
  7.812500E-01  1.054688E+01  0.000000E+00
  7.812500E-01  1.093750E+01  0.000000E+00
  7.812500E-01  1.132812E+01  0.000000E+00
  7.812500E-01  1.171875E+01  0.000000E+00
  7.812500E-01  1.210938E+01  0.000000E+00
  7.812500E-01  1.250000E+01  0.000000E+00
  7.812500E-01  1.289062E+01  0.000000E+00
  7.812500E-01  1.328125E+01  0.000000E+00
  7.812500E-01  1.367188E+01  0.000000E+00
  7.812500E-01  1.406250E+01  0.000000E+00
  7.812500E-01  1.445312E+01  0.000000E+00
  7.812500E-01  1.484375E+01  0.000000E+00
  7.812500E-01  1.523438E+01  0.000000E+00
  7.812500E-01  1.562500E+01  0.000000E+00
  7.812500E-01  1.601562E+01  0.000000E+00
  7.812500E-01  1.640625E+01  0.000000E+00
  7.812500E-01  1.679688E+01  0.000000E+00
  7.812500E-01  1.718750E+01  0.000000E+00
  7.812500E-01  1.757812E+01  0.000000E+00
  7.812500E-01  1.796875E+01  0.000000E+00
  7.812500E-01  1.835938E+01  0.000000E+00
  7.812500E-01  1.875000E+01  0.000000E+00
  7.812500E-01  1.914062E+01  0.000000E+00
  7.812500E-01  1.953125E+01  0.000000E+00
  7.812500E-01  1.992188E+01  0.000000E+00
  7.812500E-01  2.031250E+01  0.000000E+00
  7.812500E-01  2.070312E+01  0.000000E+00
  7.812500E-01  2.109375E+01  0.000000E+00
  7.812500E-01  2.148438E+01  0.000000E+00
  7.812500E-01  2.187500E+01  0.000000E+00
  7.812500E-01  2.226562E+01  0.000000E+00
  7.812500E-01  2.265625E+01  0.000000E+00
  7.812500E-01  2.304688E+01  0.000000E+00
  7.812500E-01  2.343750E+01  0.000000E+00
  7.812500E-01  2.382812E+01  0.000000E+00
  7.812500E-01  2.421875E+01  0.000000E+00
  7.812500E-01  2.460938E+01  0.000000E+00
  1.171875E+00  0.000000E+00  0.000000E+00
  1.171875E+00  3.906250E-01  0.000000E+00
  1.171875E+00  7.812500E-01  0.000000E+00
  1.171875E+00  1.171875E+00  0.000000E+00
  1.171875E+00  1.562500E+00  0.000000E+00
  1.171875E+00  1.953125E+00  0.000000E+00
  1.171875E+00  2.343750E+00  0.000000E+00
  1.171875E+00  2.734375E+00  0.000000E+00
  1.171875E+00  3.125000E+00  0.000000E+00
  1.171875E+00  3.515625E+00  0.000000E+00
  1.171875E+00  3.906250E+00  0.000000E+00
  1.171875E+00  4.296875E+00  0.000000E+00
  1.171875E+00  4.687500E+00  0.000000E+00
  1.171875E+00  5.078125E+00  0.000000E+00
  1.171875E+00  5.468750E+00  0.000000E+00
  1.171875E+00  5.859375E+00  0.000000E+00
  1.171875E+00  6.250000E+00  0.000000E+00
  1.171875E+00  6.640625E+00  0.000000E+00
  1.171875E+00  7.031250E+00  0.000000E+00
  1.171875E+00  7.421875E+00  0.000000E+00
  1.171875E+00  7.812500E+00  0.000000E+00
  1.171875E+00  8.203125E+00  0.000000E+00
  1.171875E+00  8.593750E+00  0.000000E+00
  1.171875E+00  8.984375E+00  0.000000E+00
  1.171875E+00  9.375000E+00  0.000000E+00
  1.171875E+00  9.765625E+00  0.000000E+00
  1.171875E+00  1.015625E+01  0.000000E+00
  1.171875E+00  1.054688E+01  0.000000E+00
  1.171875E+00  1.093750E+01  0.000000E+00
  1.171875E+00  1.132812E+01  0.000000E+00
  1.171875E+00  1.171875E+01  0.000000E+00
  1.171875E+00  1.210938E+01  0.000000E+00
  1.171875E+00  1.250000E+01  0.000000E+00
  1.171875E+00  1.289062E+01  0.000000E+00
  1.171875E+00  1.328125E+01  0.000000E+00
  1.171875E+00  1.367188E+01  0.000000E+00
  1.171875E+00  1.406250E+01  0.000000E+00
  1.171875E+00  1.445312E+01  0.000000E+00
[...]
POINT_DATA   4096
SCALARS CON  float  1
LOOKUP_TABLE default
  4.708538E-01
  4.698819E-01
  4.754315E-01
  4.734607E-01
  4.737958E-01
  4.673025E-01
  4.686403E-01
  4.677674E-01
  4.735128E-01
  4.715856E-01
  4.724734E-01
  4.668639E-01
  4.679426E-01
  4.649103E-01
  4.682911E-01
  4.667427E-01
  4.715543E-01
  4.708911E-01
  4.744213E-01
  4.700591E-01
  4.698831E-01
  4.644382E-01
  4.657689E-01
  4.622617E-01
  4.641555E-01
  4.603242E-01
  4.631284E-01
  4.628389E-01
  4.702118E-01
  4.713683E-01
  4.745146E-01
  4.684587E-01
  4.678671E-01
  4.649341E-01
  4.705694E-01
  4.702492E-01
  4.723829E-01
  4.663088E-01
  4.659089E-01
  4.618770E-01
  4.649326E-01
  4.624846E-01
  4.649096E-01
  4.613672E-01
  4.635437E-01
  4.608697E-01
  4.653399E-01
  4.665844E-01
  4.747177E-01
  4.752877E-01
  4.765842E-01
  4.680192E-01
  4.648849E-01
  4.601186E-01
  4.661783E-01
  4.703038E-01
  4.799910E-01
  4.803652E-01
  4.816146E-01
  4.746971E-01
  4.740858E-01
  4.697820E-01
  4.718561E-01
  4.681847E-01
  4.706934E-01
  4.712327E-01
  4.788100E-01
  4.792773E-01
  4.788592E-01
  4.696943E-01
  4.668366E-01
  4.639987E-01
  4.692259E-01
  4.691557E-01
  4.717798E-01
  4.687583E-01
  4.710395E-01
  4.683427E-01
  4.692819E-01
  4.652523E-01
  4.681823E-01
  4.690216E-01
  4.748757E-01
  4.728761E-01
  4.720979E-01
  4.653704E-01
  4.652491E-01
  4.629717E-01
  4.666825E-01
  4.649645E-01
  4.671015E-01
  4.648087E-01
  4.688604E-01
  4.690102E-01
  4.728379E-01
  4.695276E-01
  4.698122E-01
  4.660587E-01
  4.684453E-01
  4.661820E-01
  4.678475E-01
  4.643875E-01
  4.666116E-01
  4.647692E-01
  4.668763E-01
  4.623920E-01
  4.619723E-01
  4.578435E-01
  4.601158E-01
  4.587401E-01
  4.635089E-01
  4.659341E-01
  4.749523E-01
  4.771369E-01
  4.783193E-01
  4.695191E-01
  4.657729E-01
  4.626543E-01
  4.705420E-01
  4.762322E-01
  4.842211E-01
  4.817104E-01
  4.793950E-01
  4.715058E-01
  4.711257E-01
  4.687260E-01
  4.714950E-01
  4.683911E-01
  4.636816E-01
  4.703782E-01
  4.792497E-01
  4.814445E-01
  4.788347E-01
  4.706442E-01
  4.663054E-01
  4.646178E-01
  4.680792E-01
  4.697046E-01
  4.718626E-01
  4.710139E-01
  4.718275E-01
  4.702429E-01
  4.700282E-01
  4.680150E-01
  4.693457E-01
  4.701867E-01
  4.730434E-01
  4.722748E-01
  4.715313E-01
  4.680243E-01
  4.670869E-01
  4.653024E-01
  4.661764E-01
  4.650341E-01
  4.655439E-01
  4.642320E-01
  4.655286E-01
  4.650969E-01
  4.658214E-01
  4.635561E-01
  4.637171E-01
  4.640750E-01
  4.682344E-01
  4.697525E-01
  4.704522E-01
  4.669406E-01
  4.655559E-01
  4.636962E-01
  4.642894E-01
  4.617233E-01
  4.598641E-01
  4.564473E-01
  4.570030E-01
  4.580450E-01
  4.631946E-01
  4.680683E-01
  4.751623E-01
  4.776237E-01
  4.770770E-01
  4.705925E-01
  4.663358E-01
  4.642970E-01
  4.693066E-01
  4.751645E-01
  4.818942E-01
  4.821105E-01
  4.789912E-01
  4.707999E-01
  4.648995E-01
  4.594020E-01
  4.585044E-01
  4.583639E-01
  4.629674E-01
  4.710797E-01
  4.778378E-01
  4.821435E-01
  4.768734E-01
  4.692466E-01
  4.612156E-01
  4.606640E-01
  4.624880E-01
  4.676306E-01
  4.698744E-01
  4.732476E-01
  4.734865E-01
  4.739351E-01
  4.701717E-01
  4.682085E-01
  4.664506E-01
  4.697713E-01
  4.719068E-01
  4.742639E-01
  4.718121E-01
  4.703128E-01
  4.676565E-01
  4.688192E-01
  4.687706E-01
  4.701537E-01
  4.677867E-01
  4.662955E-01
  4.631656E-01
  4.640742E-01
  4.647426E-01
  4.677066E-01
  4.672787E-01
  4.675780E-01
  4.653225E-01
  4.654038E-01
  4.639798E-01
  4.656715E-01
  4.664072E-01
  4.690871E-01
  4.674138E-01
  4.651089E-01
  4.603592E-01
  4.603012E-01
  4.611942E-01
  4.650564E-01
  4.660421E-01
  4.690012E-01
  4.707079E-01
  4.739864E-01
  4.720784E-01
  4.691745E-01
  4.646459E-01
  4.664282E-01
  4.706638E-01
  4.781885E-01
  4.805455E-01
  4.798601E-01
  4.730789E-01
  4.675544E-01
  4.617471E-01
  4.604306E-01
  4.586472E-01
  4.604319E-01
  4.603275E-01
  4.709134E-01
  4.745831E-01
  4.786318E-01
  4.708988E-01
  4.665293E-01
  4.587039E-01
  4.607564E-01
  4.604335E-01
  4.670871E-01
  4.678224E-01
  4.731041E-01
  4.708913E-01
  4.726319E-01
  4.678347E-01
  4.693959E-01
  4.667668E-01
  4.709633E-01
  4.694781E-01
  4.729896E-01
  4.700448E-01
  4.722850E-01
  4.681992E-01
  4.692760E-01
  4.646828E-01
  4.663795E-01
  4.627929E-01
  4.647518E-01
  4.610134E-01
  4.637884E-01
  4.620536E-01
  4.663303E-01
  4.642305E-01
  4.672705E-01
  4.648096E-01
  4.682951E-01
  4.656810E-01
  4.682588E-01
  4.652795E-01
  4.682091E-01
  4.646048E-01
  4.653668E-01
  4.606133E-01
  4.640207E-01
  4.645721E-01
  4.711862E-01
  4.697548E-01
  4.716541E-01
  4.673649E-01
  4.693957E-01
  4.656613E-01
  4.669145E-01
  4.626175E-01
  4.656878E-01
  4.653069E-01
  4.718767E-01
  4.721728E-01
  4.760176E-01
  4.712486E-01
  4.698535E-01
  4.617763E-01
  4.599642E-01
  4.545254E-01
  4.581766E-01
  4.652521E-01
  4.718527E-01
  4.720800E-01
  4.757695E-01
  4.681339E-01
  4.646940E-01
  4.561355E-01
  4.579434E-01
  4.567153E-01
  4.638981E-01
  4.647857E-01
  4.713930E-01
  4.693841E-01
  4.715301E-01
  4.655759E-01
  4.670563E-01
  4.645954E-01
  4.710910E-01
  4.711187E-01
  4.758649E-01
  4.716440E-01
  4.726907E-01
  4.667277E-01
  4.676441E-01
  4.627730E-01
  4.655663E-01
  4.622719E-01
  4.652412E-01
  4.616617E-01
  4.663311E-01
  4.666738E-01
  4.737516E-01
  4.710890E-01
  4.712135E-01
  4.634392E-01
  4.641963E-01
  4.615058E-01
  4.676795E-01
  4.676634E-01
  4.725333E-01
  4.676041E-01
  4.672342E-01
  4.619267E-01
  4.679365E-01
  4.708097E-01
  4.786546E-01
  4.742853E-01
  4.724034E-01
  4.642292E-01
  4.655233E-01
  4.619772E-01
  4.648644E-01
  4.610777E-01
  4.652025E-01
  4.643246E-01
  4.700777E-01
  4.675906E-01
  4.700883E-01
  4.656667E-01
  4.686905E-01
  4.657896E-01
  4.691756E-01
  4.650714E-01
  4.675795E-01
  4.647402E-01
  4.697911E-01
  4.693933E-01
  4.716654E-01
  4.664149E-01
  4.655074E-01
  4.605501E-01
  4.621914E-01
  4.603269E-01
  4.648072E-01
  4.648877E-01
  4.692478E-01
  4.666655E-01
  4.677422E-01
  4.642344E-01
  4.677986E-01
  4.682242E-01
  4.740246E-01
  4.734618E-01
  4.762151E-01
  4.725490E-01
  4.728423E-01
  4.666369E-01
  4.643987E-01
  4.578454E-01
  4.590349E-01
  4.580895E-01
  4.632762E-01
  4.630658E-01
  4.677927E-01
  4.679970E-01
  4.728205E-01
  4.703891E-01
  4.709594E-01
  4.666418E-01
  4.692858E-01
  4.682349E-01
  4.719115E-01
  4.692951E-01
  4.705186E-01
  4.656761E-01
  4.657117E-01
  4.625203E-01
  4.679954E-01
  4.712192E-01
  4.783611E-01
  4.755729E-01
  4.734211E-01
  4.655555E-01
  4.652548E-01
  4.624395E-01
  4.652480E-01
  4.623283E-01
  4.640145E-01
  4.610133E-01
  4.637230E-01
  4.620528E-01
  4.660852E-01
  4.656013E-01
  4.700410E-01
  4.682691E-01
  4.698237E-01
  4.652673E-01
  4.664646E-01
  4.668547E-01
  4.673997E-01
  4.674828E-01
  4.702680E-01
  4.690440E-01
  4.685707E-01
  4.650901E-01
  4.648178E-01
  4.634504E-01
  4.658634E-01
  4.665548E-01
  4.693691E-01
  4.682939E-01
  4.682014E-01
  4.655254E-01
  4.671601E-01
  4.690861E-01
  4.750133E-01
  4.773208E-01
  4.789482E-01
  4.749605E-01
  4.718362E-01
  4.660488E-01
  4.634693E-01
  4.600990E-01
  4.615374E-01
  4.623435E-01
  4.658135E-01
  4.662975E-01
  4.698692E-01
  4.725644E-01
  4.776168E-01
  4.768610E-01
  4.745486E-01
  4.687818E-01
  4.681267E-01
  4.683648E-01
  4.723856E-01
  4.728360E-01
  4.734094E-01
  4.692368E-01
  4.669116E-01
  4.643107E-01
  4.681490E-01
  4.719293E-01
  4.763608E-01
  4.736770E-01
  4.704629E-01
  4.657430E-01
  4.663828E-01
  4.659437E-01
  4.671139E-01
  4.649046E-01
  4.658551E-01
  4.656172E-01
  4.676584E-01
  4.655289E-01
  4.647927E-01
  4.628690E-01
  4.661963E-01
  4.688535E-01
  4.730770E-01
  4.719055E-01
  4.707013E-01
  4.617841E-01
  4.631375E-01
  4.650496E-01
  4.681013E-01
  4.698698E-01
  4.717348E-01
  4.718065E-01
  4.717271E-01
  4.704394E-01
  4.705422E-01
  4.704658E-01
  4.708465E-01
  4.691629E-01
  4.677834E-01
  4.668048E-01
  4.689814E-01
  4.720071E-01
  4.757102E-01
  4.767293E-01
  4.762727E-01
  4.733534E-01
  4.705490E-01
  4.665719E-01
  4.635184E-01
  4.609447E-01
  4.618097E-01
  4.641541E-01
  4.675504E-01
  4.686108E-01
  4.694513E-01
  4.698668E-01
  4.716513E-01
  4.719359E-01
  4.721546E-01
  4.720179E-01
  4.740576E-01
  4.752587E-01
  4.752036E-01
  4.718932E-01
  4.686861E-01
  4.656592E-01
  4.650403E-01
  4.649549E-01
  4.667267E-01
  4.680084E-01
  4.693174E-01
  4.683376E-01
  4.676150E-01
  4.670838E-01
  4.688248E-01
  4.697791E-01
  4.700724E-01
  4.682201E-01
  4.675221E-01
  4.673498E-01
  4.686513E-01
  4.683065E-01
  4.676293E-01
  4.660170E-01
  4.661943E-01
  4.662250E-01
  4.665123E-01
  4.646644E-01
  4.631271E-01
  4.620864E-01
  4.615627E-01
  4.638524E-01
  4.680482E-01
  4.713231E-01
  4.728849E-01
  4.724609E-01
  4.716663E-01
  4.709584E-01
  4.713216E-01
  4.719957E-01
  4.726426E-01
  4.717975E-01
  4.698937E-01
  4.675442E-01
  4.670156E-01
  4.687851E-01
  4.725502E-01
  4.753592E-01
  4.755311E-01
  4.723990E-01
  4.684141E-01
  4.652565E-01
  4.645593E-01
  4.658288E-01
  4.688967E-01
  4.717078E-01
  4.729038E-01
  4.714788E-01
  4.698340E-01
  4.697107E-01
  4.715296E-01
  4.724995E-01
  4.718121E-01
  4.702316E-01
  4.702455E-01
  4.712736E-01
  4.719982E-01
  4.706317E-01
  4.682782E-01
  4.659064E-01
  4.651803E-01
  4.658052E-01
  4.674573E-01
  4.680136E-01
  4.669674E-01
  4.647204E-01
  4.642423E-01
  4.664757E-01
  4.704898E-01
  4.725379E-01
  4.716462E-01
  4.693300E-01
  4.694553E-01
  4.722625E-01
  4.754140E-01
  4.748890E-01
  4.709068E-01
  4.661158E-01
  4.643763E-01
  4.655507E-01
  4.676718E-01
  4.674848E-01
  4.650979E-01
  4.590628E-01
  4.606636E-01
  4.630572E-01
  4.668020E-01
  4.694831E-01
  4.720872E-01
  4.726146E-01
  4.726723E-01
  4.715224E-01
  4.718006E-01
  4.719847E-01
  4.724391E-01
  4.705440E-01
  4.684055E-01
  4.661630E-01
  4.666474E-01
  4.681549E-01
  4.710376E-01
  4.722768E-01
  4.724979E-01
  4.701396E-01
  4.676730E-01
  4.647182E-01
  4.639141E-01
  4.645244E-01
  4.681716E-01
  4.718092E-01
  4.743839E-01
  4.726698E-01
  4.692855E-01
  4.653557E-01
  4.642482E-01
  4.643434E-01
  4.665201E-01
  4.688719E-01
  4.722250E-01
  4.731495E-01
  4.715510E-01
  4.664625E-01
  4.623354E-01
  4.603436E-01
  4.624113E-01
  4.649801E-01
  4.671213E-01
  4.662458E-01
  4.649488E-01
  4.637358E-01
  4.656398E-01
  4.687676E-01
  4.725893E-01
  4.731793E-01
  4.716030E-01
  4.682716E-01
  4.675410E-01
  4.689342E-01
  4.724881E-01
  4.739890E-01
  4.737121E-01
  4.709605E-01
  4.689254E-01
  4.666113E-01
  4.650166E-01
  4.621609E-01
  4.602844E-01
  4.624449E-01
  4.627334E-01
  4.637681E-01
  4.678642E-01
  4.694347E-01
  4.708968E-01
  4.688580E-01
  4.681616E-01
  4.664657E-01
  4.680080E-01
  4.687644E-01
  4.710434E-01
  4.698535E-01
  4.685563E-01
  4.648020E-01
  4.642524E-01
  4.647012E-01
  4.693516E-01
  4.723380E-01
  4.746272E-01
  4.715569E-01
  4.682174E-01
  4.637087E-01
  4.637211E-01
  4.651094E-01
  4.703780E-01
  4.736763E-01
  4.762189E-01
  4.735156E-01
  4.708772E-01
  4.673322E-01
  4.675274E-01
  4.666811E-01
  4.670902E-01
  4.654397E-01
  4.664476E-01
  4.664685E-01
  4.677505E-01
  4.656758E-01
  4.644859E-01
  4.622097E-01
  4.636392E-01
  4.649635E-01
  4.682632E-01
  4.682326E-01
  4.682056E-01
  4.661653E-01
  4.677531E-01
  4.695504E-01
  4.729128E-01
  4.715574E-01
  4.690156E-01
  4.646064E-01
  4.652005E-01
  4.676480E-01
  4.728396E-01
  4.739389E-01
  4.738529E-01
  4.708909E-01
  4.708140E-01
  4.701525E-01
  4.709863E-01
  4.683312E-01
  4.661039E-01
  4.609685E-01
  4.637942E-01
  4.642450E-01
  4.676163E-01
  4.679117E-01
  4.704783E-01
  4.688046E-01
  4.687253E-01
  4.656264E-01
  4.667416E-01
  4.663031E-01
  4.685867E-01
  4.664244E-01
  4.660840E-01
  4.634909E-01
  4.656125E-01
  4.663752E-01
  4.705523E-01
  4.713947E-01
  4.739754E-01
  4.717957E-01
  4.705628E-01
  4.653031E-01
  4.635441E-01
  4.612334E-01
  4.648414E-01
  4.674640E-01
  4.723872E-01
  4.715963E-01
  4.708328E-01
  4.661330E-01
  4.653148E-01
  4.632990E-01
  4.655885E-01
  4.658579E-01
  4.691799E-01
  4.685382E-01
  4.687668E-01
  4.644660E-01
  4.632863E-01
  4.611519E-01
  4.639824E-01
  4.646164E-01
  4.674219E-01
  4.663427E-01
  4.680586E-01
  4.676274E-01
  4.707749E-01
  4.705974E-01
  4.716717E-01
  4.678071E-01
  4.658298E-01
  4.616799E-01
  4.624797E-01
  4.626280E-01
  4.671168E-01
  4.690417E-01
  4.733325E-01
  4.734781E-01
  4.747065E-01
  4.708999E-01
  4.685161E-01
  4.632662E-01
  4.625091E-01
  4.650827E-01
  4.660812E-01
  4.655703E-01
  4.684776E-01
  4.687570E-01
  4.702649E-01
  4.675194E-01
  4.664200E-01
  4.633321E-01
  4.642970E-01
  4.641053E-01
  4.666798E-01
  4.658048E-01
  4.663725E-01
  4.642160E-01
  4.655364E-01
  4.658445E-01
  4.699525E-01
  4.718424E-01
  4.751929E-01
  4.736842E-01
  4.722693E-01
  4.670971E-01
  4.650935E-01
  4.625370E-01
  4.647285E-01
  4.658071E-01
  4.693745E-01
  4.691942E-01
  4.704016E-01
  4.689231E-01
  4.703621E-01
  4.689479E-01
  4.688783E-01
  4.654432E-01
  4.651117E-01
  4.637877E-01
  4.662366E-01
  4.663950E-01
  4.684910E-01
  4.671648E-01
  4.677952E-01
  4.660654E-01
  4.676221E-01
  4.672288E-01
  4.692440E-01
  4.681723E-01
  4.692320E-01
  4.674352E-01
  4.674435E-01
  4.639486E-01
  4.629095E-01
  4.609482E-01
  4.639628E-01
  4.659281E-01
  4.699395E-01
  4.698005E-01
  4.710281E-01
  4.695479E-01
  4.707587E-01
  4.691805E-01
  4.696054E-01
  4.671525E-01
  4.672427E-01
  4.658224E-01
  4.673244E-01
  4.667210E-01
  4.667974E-01
  4.673815E-01
  4.692936E-01
  4.696445E-01
  4.689634E-01
  4.667481E-01
  4.657361E-01
  4.649757E-01
  4.650185E-01
  4.641054E-01
  4.644058E-01
  4.656090E-01
  4.685619E-01
  4.702273E-01
  4.710615E-01
  4.707393E-01
  4.719385E-01
  4.729755E-01
  4.732951E-01
  4.702134E-01
  4.657858E-01
  4.609757E-01
  4.592747E-01
  4.600269E-01
  4.633417E-01
  4.656513E-01
  4.667354E-01
  4.655912E-01
  4.651410E-01
  4.652228E-01
  4.670085E-01
  4.681797E-01
  4.691452E-01
  4.682647E-01
  4.673294E-01
  4.660097E-01
  4.663840E-01
  4.668525E-01
  4.676765E-01
  4.668687E-01
  4.662936E-01
  4.656981E-01
  4.667103E-01
  4.671437E-01
  4.672115E-01
  4.653008E-01
  4.635351E-01
  4.618770E-01
  4.625794E-01
  4.641844E-01
  4.668098E-01
  4.678099E-01
  4.682570E-01
  4.677103E-01
  4.682173E-01
  4.679145E-01
  4.669923E-01
  4.640395E-01
  4.619831E-01
  4.613519E-01
  4.636530E-01
  4.736570E-01
  4.711694E-01
  4.690188E-01
  4.666499E-01
  4.674672E-01
  4.674468E-01
  4.683018E-01
  4.670064E-01
  4.669706E-01
  4.656658E-01
  4.658896E-01
  4.646368E-01
  4.650792E-01
  4.649736E-01
  4.674611E-01
  4.689818E-01
  4.712652E-01
  4.710474E-01
  4.720248E-01
  4.720903E-01
  4.736523E-01
  4.724823E-01
  4.707784E-01
  4.663261E-01
  4.634672E-01
  4.606260E-01
  4.612174E-01
  4.618654E-01
  4.641758E-01
  4.644034E-01
  4.657927E-01
  4.663400E-01
  4.688225E-01
  4.691219E-01
  4.691534E-01
  4.665021E-01
  4.655831E-01
  4.647857E-01
  4.670516E-01
  4.683087E-01
  4.698874E-01
  4.684269E-01
  4.679814E-01
  4.671812E-01
  4.688692E-01
  4.684861E-01
  4.676028E-01
  4.639570E-01
  4.622351E-01
  4.607534E-01
  4.624249E-01
  4.640930E-01
  4.683488E-01
  4.713291E-01
  4.740413E-01
  4.721590E-01
  4.690558E-01
  4.638416E-01
  4.612042E-01
  4.590295E-01
  4.604384E-01
  4.627288E-01
  4.680911E-01
  4.715457E-01
  4.762815E-01
  4.741546E-01
  4.705583E-01
  4.656738E-01
  4.652659E-01
  4.656422E-01
  4.683427E-01
  4.685253E-01
  4.694032E-01
  4.679116E-01
  4.674235E-01
  4.644713E-01
  4.634271E-01
  4.627986E-01
  4.668871E-01
  4.705939E-01
  4.741141E-01
  4.725513E-01
  4.711194E-01
  4.692679E-01
  4.710816E-01
  4.711273E-01
  4.704836E-01
  4.654850E-01
  4.615105E-01
  4.577154E-01
  4.587761E-01
  4.604175E-01
  4.635217E-01
  4.627900E-01
  4.622721E-01
  4.611721E-01
  4.646186E-01
  4.682337E-01
  4.726356E-01
  4.723289E-01
  4.708695E-01
  4.667113E-01
  4.652436E-01
  4.638645E-01
  4.653924E-01
  4.654485E-01
  4.671281E-01
  4.673523E-01
  4.693748E-01
  4.687005E-01
  4.678042E-01
  4.638476E-01
  4.620866E-01
  4.607956E-01
  4.637538E-01
  4.667133E-01
  4.714029E-01
  4.725154E-01
  4.723066E-01
  4.679371E-01
  4.648105E-01
  4.611300E-01
  4.602918E-01
  4.582499E-01
  4.588179E-01
  4.602030E-01
  4.664009E-01
  4.718802E-01
  4.810557E-01
  4.767571E-01
  4.716334E-01
  4.669202E-01
  4.654407E-01
  4.644412E-01
  4.649155E-01
  4.648511E-01
  4.661052E-01
  4.662274E-01
  4.663494E-01
  4.645137E-01
  4.635597E-01
  4.629753E-01
  4.652460E-01
  4.676141E-01
  4.701843E-01
  4.700098E-01
  4.695941E-01
  4.684181E-01
  4.689276E-01
  4.685847E-01
  4.683286E-01
  4.660264E-01
  4.642850E-01
  4.624425E-01
  4.631777E-01
  4.641296E-01
  4.656493E-01
  4.650154E-01
  4.652462E-01
  4.663322E-01
  4.702169E-01
  4.726935E-01
  4.732428E-01
  4.699835E-01
  4.670937E-01
  4.648799E-01
  4.655342E-01
  4.658286E-01
  4.663520E-01
  4.655242E-01
  4.668071E-01
  4.690065E-01
  4.721932E-01
  4.715166E-01
  4.680594E-01
  4.625018E-01
  4.602055E-01
  4.605732E-01
  4.641966E-01
  4.673331E-01
  4.708159E-01
  4.721065E-01
  4.722384E-01
  4.689376E-01
  4.651285E-01
  4.608327E-01
  4.592957E-01
  4.590897E-01
  4.623487E-01
  4.673448E-01
  4.747758E-01
  4.797115E-01
  4.763272E-01
  4.740869E-01
  4.706477E-01
  4.660436E-01
  4.646646E-01
  4.638733E-01
  4.650406E-01
  4.647390E-01
  4.655050E-01
  4.649499E-01
  4.652634E-01
  4.634021E-01
  4.624373E-01
  4.614043E-01
  4.638993E-01
  4.662639E-01
  4.684692E-01
  4.665333E-01
  4.644363E-01
  4.624328E-01
  4.644147E-01
  4.664989E-01
  4.686670E-01
  4.669646E-01
  4.649758E-01
  4.625821E-01
  4.639961E-01
  4.658936E-01
  4.682617E-01
  4.668701E-01
  4.655995E-01
  4.648653E-01
  4.684948E-01
  4.719729E-01
  4.747289E-01
  4.728447E-01
  4.700907E-01
  4.659454E-01
  4.642063E-01
  4.624960E-01
  4.631527E-01
  4.635566E-01
  4.662690E-01
  4.681961E-01
  4.704931E-01
  4.690924E-01
  4.665048E-01
  4.619673E-01
  4.603432E-01
  4.601755E-01
  4.634267E-01
  4.660388E-01
  4.689859E-01
  4.686192E-01
  4.675369E-01
  4.646354E-01
  4.644632E-01
  4.651033E-01
  4.676993E-01
  4.678304E-01
  4.680489E-01
  4.677021E-01
  4.708257E-01
  4.737861E-01
  4.739427E-01
  4.698980E-01
  4.696606E-01
  4.661643E-01
  4.670801E-01
  4.638416E-01
  4.641834E-01
  4.607887E-01
  4.621001E-01
  4.603864E-01
  4.632120E-01
  4.623344E-01
  4.652816E-01
  4.639981E-01
  4.662474E-01
  4.639849E-01
  4.648959E-01
  4.612658E-01
  4.617875E-01
  4.597584E-01
  4.635834E-01
  4.647952E-01
  4.696863E-01
  4.690099E-01
  4.707000E-01
  4.682081E-01
  4.706374E-01
  4.697629E-01
  4.720699E-01
  4.692460E-01
  4.707395E-01
  4.702024E-01
  4.746089E-01
  4.731868E-01
  4.722962E-01
  4.657116E-01
  4.644976E-01
  4.622775E-01
  4.657814E-01
  4.650688E-01
  4.671253E-01
  4.650347E-01
  4.681371E-01
  4.685182E-01
  4.719991E-01
  4.685022E-01
  4.662007E-01
  4.599329E-01
  4.601200E-01
  4.591904E-01
  4.634309E-01
  4.636002E-01
  4.672536E-01
  4.666521E-01
  4.696065E-01
  4.682898E-01
  4.711462E-01
  4.707135E-01
  4.743886E-01
  4.732338E-01
  4.749940E-01
  4.726287E-01
  4.747402E-01
  4.728879E-01
  4.664233E-01
  4.649327E-01
  4.686270E-01
  4.653426E-01
  4.680323E-01
  4.647911E-01
  4.673227E-01
  4.629177E-01
  4.641611E-01
  4.599964E-01
  4.633037E-01
  4.616723E-01
  4.665542E-01
  4.653076E-01
  4.697392E-01
  4.667796E-01
  4.677804E-01
  4.609326E-01
  4.605815E-01
  4.571042E-01
  4.633411E-01
  4.652316E-01
  4.717999E-01
  4.690730E-01
  4.703979E-01
  4.662330E-01
  4.703374E-01
  4.693987E-01
  4.732193E-01
  4.686346E-01
  4.696058E-01
  4.661809E-01
  4.706577E-01
  4.687635E-01
  4.711403E-01
  4.660500E-01
  4.671889E-01
  4.630241E-01
  4.654571E-01
  4.622155E-01
  4.659550E-01
  4.647662E-01
  4.701790E-01
  4.686778E-01
  4.715054E-01
  4.664812E-01
  4.669027E-01
  4.618093E-01
  4.639950E-01