# vtk DataFile Version 2.0
title
ASCII
DATASET STRUCTURED_GRID
DIMENSIONS   64   64    1
POINTS   4096  float
  0.000000E+00  0.000000E+00  0.000000E+00
  0.000000E+00  3.906250E-01  0.000000E+00
  0.000000E+00  7.812500E-01  0.000000E+00
  0.000000E+00  1.171875E+00  0.000000E+00
  0.000000E+00  1.562500E+00  0.000000E+00
  0.000000E+00  1.953125E+00  0.000000E+00
  0.000000E+00  2.343750E+00  0.000000E+00
  0.000000E+00  2.734375E+00  0.000000E+00
  0.000000E+00  3.125000E+00  0.000000E+00
  0.000000E+00  3.515625E+00  0.000000E+00
  0.000000E+00  3.906250E+00  0.000000E+00
  0.000000E+00  4.296875E+00  0.000000E+00
  0.000000E+00  4.687500E+00  0.000000E+00
  0.000000E+00  5.078125E+00  0.000000E+00
  0.000000E+00  5.468750E+00  0.000000E+00
  0.000000E+00  5.859375E+00  0.000000E+00
  0.000000E+00  6.250000E+00  0.000000E+00
  0.000000E+00  6.640625E+00  0.000000E+00
  0.000000E+00  7.031250E+00  0.000000E+00
  0.000000E+00  7.421875E+00  0.000000E+00
  0.000000E+00  7.812500E+00  0.000000E+00
  0.000000E+00  8.203125E+00  0.000000E+00
  0.000000E+00  8.593750E+00  0.000000E+00
  0.000000E+00  8.984375E+00  0.000000E+00
  0.000000E+00  9.375000E+00  0.000000E+00
  0.000000E+00  9.765625E+00  0.000000E+00
  0.000000E+00  1.015625E+01  0.000000E+00
  0.000000E+00  1.054688E+01  0.000000E+00
  0.000000E+00  1.093750E+01  0.000000E+00
  0.000000E+00  1.132812E+01  0.000000E+00
  0.000000E+00  1.171875E+01  0.000000E+00
  0.000000E+00  1.210938E+01  0.000000E+00
  0.000000E+00  1.250000E+01  0.000000E+00
  0.000000E+00  1.289062E+01  0.000000E+00
  0.000000E+00  1.328125E+01  0.000000E+00
  0.000000E+00  1.367188E+01  0.000000E+00
  0.000000E+00  1.406250E+01  0.000000E+00
  0.000000E+00  1.445312E+01  0.000000E+00
  0.000000E+00  1.484375E+01  0.000000E+00
  0.000000E+00  1.523438E+01  0.000000E+00
  0.000000E+00  1.562500E+01  0.000000E+00
  0.000000E+00  1.601562E+01  0.000000E+00
  0.000000E+00  1.640625E+01  0.000000E+00
  0.000000E+00  1.679688E+01  0.000000E+00
  0.000000E+00  1.718750E+01  0.000000E+00
  0.000000E+00  1.757812E+01  0.000000E+00
  0.000000E+00  1.796875E+01  0.000000E+00
  0.000000E+00  1.835938E+01  0.000000E+00
  0.000000E+00  1.875000E+01  0.000000E+00
  0.000000E+00  1.914062E+01  0.000000E+00
  0.000000E+00  1.953125E+01  0.000000E+00
  0.000000E+00  1.992188E+01  0.000000E+00
  0.000000E+00  2.031250E+01  0.000000E+00
  0.000000E+00  2.070312E+01  0.000000E+00
  0.000000E+00  2.109375E+01  0.000000E+00
  0.000000E+00  2.148438E+01  0.000000E+00
  0.000000E+00  2.187500E+01  0.000000E+00
  0.000000E+00  2.226562E+01  0.000000E+00
  0.000000E+00  2.265625E+01  0.000000E+00
  0.000000E+00  2.304688E+01  0.000000E+00
  0.000000E+00  2.343750E+01  0.000000E+00
  0.000000E+00  2.382812E+01  0.000000E+00
  0.000000E+00  2.421875E+01  0.000000E+00
  0.000000E+00  2.460938E+01  0.000000E+00
  3.906250E-01  0.000000E+00  0.000000E+00
  3.906250E-01  3.906250E-01  0.000000E+00
  3.906250E-01  7.812500E-01  0.000000E+00
  3.906250E-01  1.171875E+00  0.000000E+00
  3.906250E-01  1.562500E+00  0.000000E+00
  3.906250E-01  1.953125E+00  0.000000E+00
  3.906250E-01  2.343750E+00  0.000000E+00
  3.906250E-01  2.734375E+00  0.000000E+00
  3.906250E-01  3.125000E+00  0.000000E+00
  3.906250E-01  3.515625E+00  0.000000E+00
  3.906250E-01  3.906250E+00  0.000000E+00
  3.906250E-01  4.296875E+00  0.000000E+00
  3.906250E-01  4.687500E+00  0.000000E+00
  3.906250E-01  5.078125E+00  0.000000E+00
  3.906250E-01  5.468750E+00  0.000000E+00
  3.906250E-01  5.859375E+00  0.000000E+00
  3.906250E-01  6.250000E+00  0.000000E+00
  3.906250E-01  6.640625E+00  0.000000E+00
  3.906250E-01  7.031250E+00  0.000000E+00
  3.906250E-01  7.421875E+00  0.000000E+00
  3.906250E-01  7.812500E+00  0.000000E+00
  3.906250E-01  8.203125E+00  0.000000E+00
  3.906250E-01  8.593750E+00  0.000000E+00
  3.906250E-01  8.984375E+00  0.000000E+00
  3.906250E-01  9.375000E+00  0.000000E+00
  3.906250E-01  9.765625E+00  0.000000E+00
  3.906250E-01  1.015625E+01  0.000000E+00
  3.906250E-01  1.054688E+01  0.000000E+00
  3.906250E-01  1.093750E+01  0.000000E+00
  3.906250E-01  1.132812E+01  0.000000E+00
  3.906250E-01  1.171875E+01  0.000000E+00
  3.906250E-01  1.210938E+01  0.000000E+00
  3.906250E-01  1.250000E+01  0.000000E+00
  3.906250E-01  1.289062E+01  0.000000E+00
  3.906250E-01  1.328125E+01  0.000000E+00
  3.906250E-01  1.367188E+01  0.000000E+00
  3.906250E-01  1.406250E+01  0.000000E+00
  3.906250E-01  1.445312E+01  0.000000E+00
  3.906250E-01  1.484375E+01  0.000000E+00
  3.906250E-01  1.523438E+01  0.000000E+00
  3.906250E-01  1.562500E+01  0.000000E+00
  3.906250E-01  1.601562E+01  0.000000E+00
  3.906250E-01  1.640625E+01  0.000000E+00
  3.906250E-01  1.679688E+01  0.000000E+00
  3.906250E-01  1.718750E+01  0.000000E+00
  3.906250E-01  1.757812E+01  0.000000E+00
  3.906250E-01  1.796875E+01  0.000000E+00
  3.906250E-01  1.835938E+01  0.000000E+00
  3.906250E-01  1.875000E+01  0.000000E+00
  3.906250E-01  1.914062E+01  0.000000E+00
  3.906250E-01  1.953125E+01  0.000000E+00
  3.906250E-01  1.992188E+01  0.000000E+00
  3.906250E-01  2.031250E+01  0.000000E+00
  3.906250E-01  2.070312E+01  0.000000E+00
  3.906250E-01  2.109375E+01  0.000000E+00
  3.906250E-01  2.148438E+01  0.000000E+00
  3.906250E-01  2.187500E+01  0.000000E+00
  3.906250E-01  2.226562E+01  0.000000E+00
  3.906250E-01  2.265625E+01  0.000000E+00
  3.906250E-01  2.304688E+01  0.000000E+00
  3.906250E-01  2.343750E+01  0.000000E+00
  3.906250E-01  2.382812E+01  0.000000E+00
  3.906250E-01  2.421875E+01  0.000000E+00
  3.906250E-01  2.460938E+01  0.000000E+00
  7.812500E-01  0.000000E+00  0.000000E+00
  7.812500E-01  3.906250E-01  0.000000E+00
  7.812500E-01  7.812500E-01  0.000000E+00
  7.812500E-01  1.171875E+00  0.000000E+00
  7.812500E-01  1.562500E+00  0.000000E+00
  7.812500E-01  1.953125E+00  0.000000E+00
  7.812500E-01  2.343750E+00  0.000000E+00
  7.812500E-01  2.734375E+00  0.000000E+00
  7.812500E-01  3.125000E+00  0.000000E+00
  7.812500E-01  3.515625E+00  0.000000E+00
  7.812500E-01  3.906250E+00  0.000000E+00
  7.812500E-01  4.296875E+00  0.000000E+00
  7.812500E-01  4.687500E+00  0.000000E+00
  7.812500E-01  5.078125E+00  0.000000E+00
  7.812500E-01  5.468750E+00  0.000000E+00
  7.812500E-01  5.859375E+00  0.000000E+00
  7.812500E-01  6.250000E+00  0.000000E+00
  7.812500E-01  6.640625E+00  0.000000E+00
  7.812500E-01  7.031250E+00  0.000000E+00
  7.812500E-01  7.421875E+00  0.000000E+00
  7.812500E-01  7.812500E+00  0.000000E+00
  7.812500E-01  8.203125E+00  0.000000E+00
  7.812500E-01  8.593750E+00  0.000000E+00
  7.812500E-01  8.984375E+00  0.000000E+00
  7.812500E-01  9.375000E+00  0.000000E+00
  7.812500E-01  9.765625E+00  0.000000E+00
  7.812500E-01  1.015625E+01  0.000000E+00
  7.812500E-01  1.054688E+01  0.000000E+00
  7.812500E-01  1.093750E+01  0.000000E+00
  7.812500E-01  1.132812E+01  0.000000E+00
  7.812500E-01  1.171875E+01  0.000000E+00
  7.812500E-01  1.210938E+01  0.000000E+00
  7.812500E-01  1.250000E+01  0.000000E+00
  7.812500E-01  1.289062E+01  0.000000E+00
  7.812500E-01  1.328125E+01  0.000000E+00
  7.812500E-01  1.367188E+01  0.000000E+00
  7.812500E-01  1.406250E+01  0.000000E+00
  7.812500E-01  1.445312E+01  0.000000E+00
  7.812500E-01  1.484375E+01  0.000000E+00
  7.812500E-01  1.523438E+01  0.000000E+00
  7.812500E-01  1.562500E+01  0.000000E+00
  7.812500E-01  1.601562E+01  0.000000E+00
  7.812500E-01  1.640625E+01  0.000000E+00
  7.812500E-01  1.679688E+01  0.000000E+00
  7.812500E-01  1.718750E+01  0.000000E+00
  7.812500E-01  1.757812E+01  0.000000E+00
  7.812500E-01  1.796875E+01  0.000000E+00
  7.812500E-01  1.835938E+01  0.000000E+00
  7.812500E-01  1.875000E+01  0.000000E+00
  7.812500E-01  1.914062E+01  0.000000E+00
  7.812500E-01  1.953125E+01  0.000000E+00
  7.812500E-01  1.992188E+01  0.000000E+00
  7.812500E-01  2.031250E+01  0.000000E+00
  7.812500E-01  2.070312E+01  0.000000E+00
  7.812500E-01  2.109375E+01  0.000000E+00
  7.812500E-01  2.148438E+01  0.000000E+00
  7.812500E-01  2.187500E+01  0.000000E+00
  7.812500E-01  2.226562E+01  0.000000E+00
  7.812500E-01  2.265625E+01  0.000000E+00
  7.812500E-01  2.304688E+01  0.000000E+00
  7.812500E-01  2.343750E+01  0.000000E+00
  7.812500E-01  2.382812E+01  0.000000E+00
  7.812500E-01  2.421875E+01  0.000000E+00
  7.812500E-01  2.460938E+01  0.000000E+00
  1.171875E+00  0.000000E+00  0.000000E+00
  1.171875E+00  3.906250E-01  0.000000E+00
  1.171875E+00  7.812500E-01  0.000000E+00
  1.171875E+00  1.171875E+00  0.000000E+00
  1.171875E+00  1.562500E+00  0.000000E+00
  1.171875E+00  1.953125E+00  0.000000E+00
  1.171875E+00  2.343750E+00  0.000000E+00
  1.171875E+00  2.734375E+00  0.000000E+00
  1.171875E+00  3.125000E+00  0.000000E+00
  1.171875E+00  3.515625E+00  0.000000E+00
  1.171875E+00  3.906250E+00  0.000000E+00
  1.171875E+00  4.296875E+00  0.000000E+00
  1.171875E+00  4.687500E+00  0.000000E+00
  1.171875E+00  5.078125E+00  0.000000E+00
  1.171875E+00  5.468750E+00  0.000000E+00
  1.171875E+00  5.859375E+00  0.000000E+00
  1.171875E+00  6.250000E+00  0.000000E+00
  1.171875E+00  6.640625E+00  0.000000E+00
  1.171875E+00  7.031250E+00  0.000000E+00
  1.171875E+00  7.421875E+00  0.000000E+00
  1.171875E+00  7.812500E+00  0.000000E+00
  1.171875E+00  8.203125E+00  0.000000E+00
  1.171875E+00  8.593750E+00  0.000000E+00
  1.171875E+00  8.984375E+00  0.000000E+00
  1.171875E+00  9.375000E+00  0.000000E+00
  1.171875E+00  9.765625E+00  0.000000E+00
  1.171875E+00  1.015625E+01  0.000000E+00
  1.171875E+00  1.054688E+01  0.000000E+00
  1.171875E+00  1.093750E+01  0.000000E+00
  1.171875E+00  1.132812E+01  0.000000E+00
  1.171875E+00  1.171875E+01  0.000000E+00
  1.171875E+00  1.210938E+01  0.000000E+00
  1.171875E+00  1.250000E+01  0.000000E+00
  1.171875E+00  1.289062E+01  0.000000E+00
  1.171875E+00  1.328125E+01  0.000000E+00
  1.171875E+00  1.367188E+01  0.000000E+00
  1.171875E+00  1.406250E+01  0.000000E+00
  1.171875E+00  1.445312E+01  0.000000E+00
[...]
POINT_DATA   4096
SCALARS CON  float  1
LOOKUP_TABLE default
  4.712586E-01
  4.711397E-01
  4.769892E-01
  4.740132E-01
  4.744551E-01
  4.678771E-01
  4.697451E-01
  4.683134E-01
  4.742319E-01
  4.721946E-01
  4.737532E-01
  4.674695E-01
  4.679590E-01
  4.639366E-01
  4.681099E-01
  4.673830E-01
  4.733179E-01
  4.720336E-01
  4.750832E-01
  4.697802E-01
  4.698720E-01
  4.641343E-01
  4.656148E-01
  4.612676E-01
  4.631090E-01
  4.591147E-01
  4.631008E-01
  4.633288E-01
  4.712184E-01
  4.715401E-01
  4.748004E-01
  4.689046E-01
  4.693302E-01
  4.659902E-01
  4.712858E-01
  4.701409E-01
  4.728423E-01
  4.668240E-01
  4.666587E-01
  4.615957E-01
  4.643618E-01
  4.613882E-01
  4.642016E-01
  4.601088E-01
  4.623079E-01
  4.595022E-01
  4.653610E-01
  4.675365E-01
  4.767474E-01
  4.769461E-01
  4.781678E-01
  4.685112E-01
  4.647576E-01
  4.589949E-01
  4.657614E-01
  4.708476E-01
  4.823004E-01
  4.830941E-01
  4.847253E-01
  4.766629E-01
  4.747567E-01
  4.681694E-01
  4.696580E-01
  4.664562E-01
  4.713396E-01
  4.728880E-01
  4.804826E-01
  4.798102E-01
  4.793563E-01
  4.704126E-01
  4.679236E-01
  4.641697E-01
  4.690114E-01
  4.692155E-01
  4.733252E-01
  4.705647E-01
  4.721682E-01
  4.679724E-01
  4.689305E-01
  4.655230E-01
  4.693587E-01
  4.695751E-01
  4.746587E-01
  4.718419E-01
  4.715395E-01
  4.651809E-01
  4.656008E-01
  4.629197E-01
  4.665304E-01
  4.645373E-01
  4.672541E-01
  4.650935E-01
  4.693447E-01
  4.689840E-01
  4.731730E-01
  4.703910E-01
  4.715808E-01
  4.672528E-01
  4.686219E-01
  4.650956E-01
  4.670793E-01
  4.642258E-01
  4.671539E-01
  4.646821E-01
  4.663389E-01
  4.613647E-01
  4.612171E-01
  4.566584E-01
  4.588126E-01
  4.574468E-01
  4.634655E-01
  4.666094E-01
  4.758942E-01
  4.772368E-01
  4.783289E-01
  4.694495E-01
  4.660492E-01
  4.626737E-01
  4.711967E-01
  4.777433E-01
  4.871221E-01
  4.848178E-01
  4.823686E-01
  4.732439E-01
  4.715666E-01
  4.672584E-01
  4.694558E-01
  4.669628E-01
  4.639462E-01
  4.719249E-01
  4.808313E-01
  4.824995E-01
  4.795193E-01
  4.712166E-01
  4.663522E-01
  4.639219E-01
  4.670957E-01
  4.695246E-01
  4.728532E-01
  4.725278E-01
  4.726887E-01
  4.701415E-01
  4.694711E-01
  4.677453E-01
  4.693162E-01
  4.699913E-01
  4.723729E-01
  4.715014E-01
  4.710931E-01
  4.681997E-01
  4.675845E-01
  4.657156E-01
  4.660838E-01
  4.645862E-01
  4.651555E-01
  4.643207E-01
  4.658156E-01
  4.651551E-01
  4.655169E-01
  4.633971E-01
  4.638833E-01
  4.642110E-01
  4.677278E-01
  4.688196E-01
  4.697965E-01
  4.670397E-01
  4.658091E-01
  4.632732E-01
  4.628855E-01
  4.600101E-01
  4.584298E-01
  4.554054E-01
  4.560192E-01
  4.572535E-01
  4.628791E-01
  4.682684E-01
  4.752768E-01
  4.773852E-01
  4.767090E-01
  4.704905E-01
  4.662841E-01
  4.641846E-01
  4.694630E-01
  4.763076E-01
  4.840863E-01
  4.848885E-01
  4.815998E-01
  4.726305E-01
  4.652190E-01
  4.580701E-01
  4.563196E-01
  4.569596E-01
  4.633727E-01
  4.725471E-01
  4.790536E-01
  4.831512E-01
  4.774099E-01
  4.697466E-01
  4.605894E-01
  4.589275E-01
  4.599330E-01
  4.662577E-01
  4.701009E-01
  4.747771E-01
  4.743354E-01
  4.738021E-01
  4.690626E-01
  4.673657E-01
  4.656978E-01
  4.694186E-01
  4.714944E-01
  4.744388E-01
  4.721316E-01
  4.709249E-01
  4.677807E-01
  4.688011E-01
  4.681813E-01
  4.694916E-01
  4.667888E-01
  4.657560E-01
  4.628326E-01
  4.642097E-01
  4.645678E-01
  4.675822E-01
  4.667986E-01
  4.669886E-01
  4.638674E-01
  4.637817E-01
  4.626340E-01
  4.656246E-01
  4.666490E-01
  4.689585E-01
  4.661260E-01
  4.638115E-01
  4.592279E-01
  4.595602E-01
  4.599980E-01
  4.642336E-01
  4.659416E-01
  4.700449E-01
  4.713818E-01
  4.739194E-01
  4.711461E-01
  4.686481E-01
  4.642921E-01
  4.663862E-01
  4.704637E-01
  4.786769E-01
  4.814153E-01
  4.811658E-01
  4.738648E-01
  4.680354E-01
  4.613405E-01
  4.595547E-01
  4.572810E-01
  4.598869E-01
  4.600663E-01
  4.716543E-01
  4.754072E-01
  4.799580E-01
  4.718078E-01
  4.669988E-01
  4.575740E-01
  4.588370E-01
  4.581261E-01
  4.659502E-01
  4.674450E-01
  4.735344E-01
  4.708705E-01
  4.725340E-01
  4.671725E-01
  4.689683E-01
  4.661647E-01
  4.710696E-01
  4.699565E-01
  4.743638E-01
  4.711253E-01
  4.730710E-01
  4.679737E-01
  4.689622E-01
  4.638421E-01
  4.654702E-01
  4.612799E-01
  4.638045E-01
  4.605368E-01
  4.641127E-01
  4.617923E-01
  4.657348E-01
  4.630708E-01
  4.665829E-01
  4.639923E-01
  4.678972E-01
  4.654002E-01
  4.689066E-01
  4.657356E-01
  4.682268E-01
  4.634345E-01
  4.643949E-01
  4.599217E-01
  4.639633E-01
  4.639379E-01
  4.707349E-01
  4.697855E-01
  4.731755E-01
  4.689822E-01
  4.706076E-01
  4.654903E-01
  4.663257E-01
  4.613887E-01
  4.646113E-01
  4.641130E-01
  4.715972E-01
  4.722819E-01
  4.767204E-01
  4.714237E-01
  4.698096E-01
  4.607956E-01
  4.587465E-01
  4.529154E-01
  4.573744E-01
  4.649608E-01
  4.723106E-01
  4.724477E-01
  4.767356E-01
  4.687201E-01
  4.650983E-01
  4.550734E-01
  4.562207E-01
  4.544667E-01
  4.628374E-01
  4.644786E-01
  4.720472E-01
  4.695489E-01
  4.717042E-01
  4.651944E-01
  4.670686E-01
  4.643855E-01
  4.716219E-01
  4.719522E-01
  4.776818E-01
  4.729839E-01
  4.735240E-01
  4.662838E-01
  4.673570E-01
  4.623422E-01
  4.653350E-01
  4.609900E-01
  4.639909E-01
  4.606659E-01
  4.666644E-01
  4.669567E-01
  4.740954E-01
  4.708976E-01
  4.715905E-01
  4.634484E-01
  4.642406E-01
  4.611397E-01
  4.682158E-01
  4.682336E-01
  4.731580E-01
  4.673882E-01
  4.676530E-01
  4.626675E-01
  4.690186E-01
  4.705546E-01
  4.781471E-01
  4.741875E-01
  4.741004E-01
  4.659444E-01
  4.665130E-01
  4.610868E-01
  4.635742E-01
  4.594808E-01
  4.643055E-01
  4.634570E-01
  4.701104E-01
  4.676953E-01
  4.704708E-01
  4.650039E-01
  4.676511E-01
  4.640486E-01
  4.679250E-01
  4.638374E-01
  4.671872E-01
  4.641102E-01
  4.698914E-01
  4.695578E-01
  4.726086E-01
  4.668910E-01
  4.655783E-01
  4.592875E-01
  4.609807E-01
  4.592724E-01
  4.648541E-01
  4.648373E-01
  4.694552E-01
  4.664501E-01
  4.680750E-01
  4.642938E-01
  4.680757E-01
  4.679575E-01
  4.743712E-01
  4.741166E-01
  4.778297E-01
  4.735850E-01
  4.733418E-01
  4.660013E-01
  4.642061E-01
  4.577465E-01
  4.592162E-01
  4.571508E-01
  4.622884E-01
  4.622677E-01
  4.682220E-01
  4.681712E-01
  4.729416E-01
  4.701935E-01
  4.719269E-01
  4.678357E-01
  4.706804E-01
  4.687943E-01
  4.727270E-01
  4.697065E-01
  4.709159E-01
  4.653204E-01
  4.661255E-01
  4.635422E-01
  4.698220E-01
  4.719073E-01
  4.783224E-01
  4.749767E-01
  4.739537E-01
  4.662089E-01
  4.657649E-01
  4.614958E-01
  4.639552E-01
  4.606381E-01
  4.630751E-01
  4.602119E-01
  4.638672E-01
  4.622988E-01
  4.667785E-01
  4.654363E-01
  4.694630E-01
  4.666815E-01
  4.684398E-01
  4.637874E-01
  4.658104E-01
  4.669315E-01
  4.676289E-01
  4.675577E-01
  4.704860E-01
  4.690053E-01
  4.683109E-01
  4.641756E-01
  4.637896E-01
  4.625880E-01
  4.658406E-01
  4.669682E-01
  4.700572E-01
  4.685902E-01
  4.682840E-01
  4.651664E-01
  4.667561E-01
  4.685270E-01
  4.749073E-01
  4.777214E-01
  4.800930E-01
  4.758594E-01
  4.719614E-01
  4.650880E-01
  4.625993E-01
  4.597802E-01
  4.617384E-01
  4.619457E-01
  4.650558E-01
  4.657593E-01
  4.703347E-01
  4.731889E-01
  4.780562E-01
  4.771156E-01
  4.754989E-01
  4.698842E-01
  4.688916E-01
  4.683907E-01
  4.725888E-01
  4.731820E-01
  4.737058E-01
  4.689810E-01
  4.670594E-01
  4.652240E-01
  4.697061E-01
  4.727858E-01
  4.764388E-01
  4.733388E-01
  4.705757E-01
  4.656667E-01
  4.657123E-01
  4.644337E-01
  4.658848E-01
  4.643273E-01
  4.660398E-01
  4.657039E-01
  4.677011E-01
  4.653942E-01
  4.648214E-01
  4.625485E-01
  4.656573E-01
  4.679943E-01
  4.725349E-01
  4.715757E-01
  4.708020E-01
  4.618721E-01
  4.629461E-01
  4.651201E-01
  4.681149E-01
  4.701606E-01
  4.715195E-01
  4.714681E-01
  4.712394E-01
  4.707263E-01
  4.710752E-01
  4.711980E-01
  4.709996E-01
  4.692463E-01
  4.674472E-01
  4.664551E-01
  4.682008E-01
  4.715778E-01
  4.756456E-01
  4.777193E-01
  4.775662E-01
  4.745868E-01
  4.704441E-01
  4.655057E-01
  4.618479E-01
  4.599922E-01
  4.612283E-01
  4.639867E-01
  4.673110E-01
  4.691594E-01
  4.702762E-01
  4.706040E-01
  4.713046E-01
  4.715408E-01
  4.722359E-01
  4.731269E-01
  4.750027E-01
  4.760391E-01
  4.755911E-01
  4.724821E-01
  4.685926E-01
  4.649919E-01
  4.638108E-01
  4.645180E-01
  4.670006E-01
  4.689837E-01
  4.699157E-01
  4.688625E-01
  4.677729E-01
  4.673005E-01
  4.684782E-01
  4.694606E-01
  4.698029E-01
  4.686820E-01
  4.678448E-01
  4.673305E-01
  4.677090E-01
  4.674952E-01
  4.672191E-01
  4.666073E-01
  4.668607E-01
  4.668746E-01
  4.665446E-01
  4.647373E-01
  4.629855E-01
  4.621951E-01
  4.610983E-01
  4.636037E-01
  4.676435E-01
  4.717539E-01
  4.733797E-01
  4.732878E-01
  4.718465E-01
  4.713583E-01
  4.716309E-01
  4.730111E-01
  4.733425E-01
  4.723895E-01
  4.694482E-01
  4.669706E-01
  4.661661E-01
  4.688551E-01
  4.730550E-01
  4.768980E-01
  4.770622E-01
  4.739606E-01
  4.685358E-01
  4.643705E-01
  4.626508E-01
  4.646437E-01
  4.682020E-01
  4.719017E-01
  4.730635E-01
  4.725218E-01
  4.710806E-01
  4.711681E-01
  4.718387E-01
  4.725761E-01
  4.716911E-01
  4.707777E-01
  4.703300E-01
  4.714553E-01
  4.720400E-01
  4.714586E-01
  4.686736E-01
  4.658918E-01
  4.640501E-01
  4.648111E-01
  4.664618E-01
  4.679853E-01
  4.673331E-01
  4.660998E-01
  4.654808E-01
  4.675401E-01
  4.703508E-01
  4.723971E-01
  4.717184E-01
  4.705807E-01
  4.704277E-01
  4.726093E-01
  4.742476E-01
  4.737795E-01
  4.702203E-01
  4.668539E-01
  4.653805E-01
  4.668717E-01
  4.682832E-01
  4.680715E-01
  4.650789E-01
  4.580074E-01
  4.595462E-01
  4.623472E-01
  4.667642E-01
  4.703711E-01
  4.733347E-01
  4.738812E-01
  4.736909E-01
  4.726101E-01
  4.727774E-01
  4.727528E-01
  4.726988E-01
  4.705525E-01
  4.681324E-01
  4.658453E-01
  4.663283E-01
  4.683202E-01
  4.717114E-01
  4.734871E-01
  4.737544E-01
  4.711857E-01
  4.679395E-01
  4.642174E-01
  4.628559E-01
  4.637161E-01
  4.678472E-01
  4.721166E-01
  4.751288E-01
  4.740726E-01
  4.709102E-01
  4.665945E-01
  4.644092E-01
  4.639674E-01
  4.663500E-01
  4.694432E-01
  4.729461E-01
  4.736892E-01
  4.718368E-01
  4.669786E-01
  4.628247E-01
  4.604198E-01
  4.615213E-01
  4.634911E-01
  4.655797E-01
  4.655065E-01
  4.651248E-01
  4.647692E-01
  4.668669E-01
  4.698237E-01
  4.730841E-01
  4.734832E-01
  4.719751E-01
  4.689860E-01
  4.680416E-01
  4.688738E-01
  4.717662E-01
  4.735528E-01
  4.742489E-01
  4.726694E-01
  4.708006E-01
  4.678301E-01
  4.650730E-01
  4.615260E-01
  4.592521E-01
  4.611150E-01
  4.615272E-01
  4.626075E-01
  4.675721E-01
  4.698791E-01
  4.722265E-01
  4.700593E-01
  4.691404E-01
  4.668374E-01
  4.684603E-01
  4.690726E-01
  4.714709E-01
  4.697952E-01
  4.683352E-01
  4.641843E-01
  4.638835E-01
  4.643611E-01
  4.693917E-01
  4.722589E-01
  4.748091E-01
  4.716305E-01
  4.684267E-01
  4.634745E-01
  4.635406E-01
  4.649880E-01
  4.709047E-01
  4.742682E-01
  4.770822E-01
  4.743913E-01
  4.722142E-01
  4.683077E-01
  4.680104E-01
  4.663731E-01
  4.669588E-01
  4.653599E-01
  4.664711E-01
  4.659151E-01
  4.672977E-01
  4.654670E-01
  4.650155E-01
  4.626632E-01
  4.638400E-01
  4.642198E-01
  4.671138E-01
  4.668748E-01
  4.676923E-01
  4.663344E-01
  4.685474E-01
  4.698392E-01
  4.727242E-01
  4.708373E-01
  4.687899E-01
  4.647678E-01
  4.658742E-01
  4.680880E-01
  4.734752E-01
  4.747548E-01
  4.753887E-01
  4.723531E-01
  4.719689E-01
  4.702971E-01
  4.706427E-01
  4.674014E-01
  4.651423E-01
  4.596330E-01
  4.625046E-01
  4.631687E-01
  4.673541E-01
  4.681275E-01
  4.710097E-01
  4.691415E-01
  4.692289E-01
  4.661432E-01
  4.672327E-01
  4.660953E-01
  4.679519E-01
  4.655975E-01
  4.656697E-01
  4.631132E-01
  4.652357E-01
  4.657268E-01
  4.700640E-01
  4.709130E-01
  4.737252E-01
  4.715196E-01
  4.705300E-01
  4.652228E-01
  4.636336E-01
  4.613143E-01
  4.652667E-01
  4.679922E-01
  4.732129E-01
  4.723687E-01
  4.715282E-01
  4.660303E-01
  4.644458E-01
  4.618792E-01
  4.647224E-01
  4.657017E-01
  4.695443E-01
  4.684572E-01
  4.682940E-01
  4.637294E-01
  4.629107E-01
  4.608710E-01
  4.638022E-01
  4.641708E-01
  4.670550E-01
  4.659180E-01
  4.678089E-01
  4.672192E-01
  4.704429E-01
  4.701527E-01
  4.714157E-01
  4.674638E-01
  4.655757E-01
  4.612519E-01
  4.622957E-01
  4.627829E-01
  4.681759E-01
  4.707430E-01
  4.754559E-01
  4.750183E-01
  4.753713E-01
  4.704512E-01
  4.676645E-01
  4.621761E-01
  4.614807E-01
  4.649822E-01
  4.655445E-01
  4.650164E-01
  4.679324E-01
  4.684209E-01
  4.699587E-01
  4.673578E-01
  4.662232E-01
  4.632475E-01
  4.641213E-01
  4.638867E-01
  4.662123E-01
  4.653312E-01
  4.658424E-01
  4.637837E-01
  4.650509E-01
  4.656329E-01
  4.700692E-01
  4.724179E-01
  4.758004E-01
  4.741980E-01
  4.723789E-01
  4.669076E-01
  4.645609E-01
  4.621355E-01
  4.646073E-01
  4.661151E-01
  4.696938E-01
  4.694622E-01
  4.703525E-01
  4.685382E-01
  4.693594E-01
  4.677409E-01
  4.678512E-01
  4.650057E-01
  4.648216E-01
  4.634137E-01
  4.655793E-01
  4.657744E-01
  4.678223E-01
  4.666522E-01
  4.674822E-01
  4.662903E-01
  4.681073E-01
  4.677762E-01
  4.694597E-01
  4.682117E-01
  4.690065E-01
  4.671141E-01
  4.669244E-01
  4.635342E-01
  4.625413E-01
  4.607382E-01
  4.637678E-01
  4.661756E-01
  4.707765E-01
  4.711906E-01
  4.720411E-01
  4.696251E-01
  4.698392E-01
  4.682471E-01
  4.692169E-01
  4.674285E-01
  4.674620E-01
  4.660891E-01
  4.674993E-01
  4.670058E-01
  4.670573E-01
  4.672879E-01
  4.687363E-01
  4.690206E-01
  4.688089E-01
  4.671571E-01
  4.661484E-01
  4.647995E-01
  4.642744E-01
  4.633669E-01
  4.640189E-01
  4.654177E-01
  4.684115E-01
  4.705259E-01
  4.723435E-01
  4.728944E-01
  4.741183E-01
  4.743833E-01
  4.736931E-01
  4.697854E-01
  4.647687E-01
  4.597096E-01
  4.582044E-01
  4.594795E-01
  4.632195E-01
  4.655923E-01
  4.663936E-01
  4.648316E-01
  4.640335E-01
  4.641337E-01
  4.664257E-01
  4.683568E-01
  4.698237E-01
  4.689660E-01
  4.676945E-01
  4.658818E-01
  4.656751E-01
  4.657433E-01
  4.667566E-01
  4.668602E-01
  4.673483E-01
  4.672211E-01
  4.678637E-01
  4.675792E-01
  4.671690E-01
  4.652508E-01
  4.637300E-01
  4.622542E-01
  4.627989E-01
  4.639315E-01
  4.661087E-01
  4.671419E-01
  4.680695E-01
  4.678978E-01
  4.681398E-01
  4.671241E-01
  4.657367E-01
  4.630740E-01
  4.617900E-01
  4.617679E-01
  4.641356E-01
  4.743205E-01
  4.722781E-01
  4.698990E-01
  4.673986E-01
  4.672999E-01
  4.671905E-01
  4.678371E-01
  4.670644E-01
  4.668864E-01
  4.658361E-01
  4.657012E-01
  4.646758E-01
  4.648137E-01
  4.648684E-01
  4.668555E-01
  4.686419E-01
  4.712830E-01
  4.725356E-01
  4.741988E-01
  4.745748E-01
  4.750530E-01
  4.731144E-01
  4.702302E-01
  4.653836E-01
  4.619195E-01
  4.594493E-01
  4.600309E-01
  4.610469E-01
  4.630603E-01
  4.638014E-01
  4.654644E-01
  4.667915E-01
  4.691786E-01
  4.696954E-01
  4.693297E-01
  4.668841E-01
  4.657426E-01
  4.653617E-01
  4.672909E-01
  4.683926E-01
  4.692727E-01
  4.682815E-01
  4.683285E-01
  4.684344E-01
  4.698267E-01
  4.693197E-01
  4.678722E-01
  4.643533E-01
  4.620702E-01
  4.605154E-01
  4.618739E-01
  4.641457E-01
  4.683671E-01
  4.714610E-01
  4.735612E-01
  4.717832E-01
  4.682031E-01
  4.626928E-01
  4.590798E-01
  4.571217E-01
  4.591515E-01
  4.629506E-01
  4.687445E-01
  4.725331E-01
  4.764906E-01
  4.752564E-01
  4.717479E-01
  4.668542E-01
  4.653844E-01
  4.654683E-01
  4.679219E-01
  4.688773E-01
  4.697582E-01
  4.682586E-01
  4.668530E-01
  4.639127E-01
  4.629078E-01
  4.630040E-01
  4.667173E-01
  4.702579E-01
  4.734346E-01
  4.728505E-01
  4.719197E-01
  4.705275E-01
  4.716534E-01
  4.715759E-01
  4.703808E-01
  4.653340E-01
  4.606095E-01
  4.567853E-01
  4.574455E-01
  4.592901E-01
  4.620744E-01
  4.619813E-01
  4.619230E-01
  4.618018E-01
  4.651902E-01
  4.690000E-01
  4.730532E-01
  4.731393E-01
  4.714821E-01
  4.675224E-01
  4.654136E-01
  4.638307E-01
  4.647728E-01
  4.653469E-01
  4.673231E-01
  4.681855E-01
  4.696596E-01
  4.687289E-01
  4.672149E-01
  4.634821E-01
  4.613136E-01
  4.601369E-01
  4.629052E-01
  4.666190E-01
  4.714275E-01
  4.728209E-01
  4.720308E-01
  4.676974E-01
  4.640147E-01
  4.601839E-01
  4.586438E-01
  4.569599E-01
  4.578426E-01
  4.601689E-01
  4.663272E-01
  4.721092E-01
  4.817540E-01
  4.777244E-01
  4.727430E-01
  4.672629E-01
  4.651885E-01
  4.639021E-01
  4.648423E-01
  4.648681E-01
  4.659945E-01
  4.655104E-01
  4.655642E-01
  4.639250E-01
  4.637499E-01
  4.635228E-01
  4.658249E-01
  4.674295E-01
  4.694822E-01
  4.689779E-01
  4.688949E-01
  4.679140E-01
  4.688967E-01
  4.687887E-01
  4.688778E-01
  4.663592E-01
  4.644967E-01
  4.622773E-01
  4.627540E-01
  4.629614E-01
  4.642447E-01
  4.639896E-01
  4.655364E-01
  4.673961E-01
  4.713943E-01
  4.731201E-01
  4.732775E-01
  4.697519E-01
  4.670575E-01
  4.647179E-01
  4.653384E-01
  4.653293E-01
  4.661276E-01
  4.657066E-01
  4.675155E-01
  4.692368E-01
  4.716551E-01
  4.702929E-01
  4.671567E-01
  4.617523E-01
  4.592218E-01
  4.587699E-01
  4.625036E-01
  4.665283E-01
  4.714067E-01
  4.731485E-01
  4.732437E-01
  4.693909E-01
  4.652099E-01
  4.600851E-01
  4.580243E-01
  4.576769E-01
  4.618083E-01
  4.675177E-01
  4.753782E-01
  4.801157E-01
  4.770246E-01
  4.744951E-01
  4.716042E-01
  4.659471E-01
  4.644427E-01
  4.627890E-01
  4.647665E-01
  4.644038E-01
  4.658373E-01
  4.642135E-01
  4.643812E-01
  4.619204E-01
  4.624175E-01
  4.620633E-01
  4.656246E-01
  4.668438E-01
  4.684759E-01
  4.651789E-01
  4.634799E-01
  4.612520E-01
  4.643120E-01
  4.663705E-01
  4.694037E-01
  4.671739E-01
  4.656620E-01
  4.626867E-01
  4.644906E-01
  4.653896E-01
  4.679247E-01
  4.661732E-01
  4.660882E-01
  4.651619E-01
  4.691148E-01
  4.717351E-01
  4.752196E-01
  4.731950E-01
  4.709754E-01
  4.656137E-01
  4.635850E-01
  4.609279E-01
  4.624251E-01
  4.630074E-01
  4.668596E-01
  4.682222E-01
  4.705584E-01
  4.681317E-01
  4.659848E-01
  4.608831E-01
  4.595670E-01
  4.586005E-01
  4.626335E-01
  4.654568E-01
  4.696995E-01
  4.690730E-01
  4.685431E-01
  4.650900E-01
  4.653910E-01
  4.651071E-01
  4.677646E-01
  4.671868E-01
  4.682516E-01
  4.677148E-01
  4.714718E-01
  4.738081E-01
  4.749187E-01
  4.703367E-01
  4.703176E-01
  4.656623E-01
  4.665287E-01
  4.626445E-01
  4.637137E-01
  4.599767E-01
  4.617516E-01
  4.593491E-01
  4.626081E-01
  4.613794E-01
  4.653290E-01
  4.641988E-01
  4.674334E-01
  4.645244E-01
  4.652841E-01
  4.604036E-01
  4.611402E-01
  4.588115E-01
  4.635579E-01
  4.644425E-01
  4.697519E-01
  4.685125E-01
  4.710927E-01
  4.686443E-01
  4.717087E-01
  4.697819E-01
  4.721254E-01
  4.690560E-01
  4.718151E-01
  4.710630E-01
  4.756037E-01
  4.732221E-01
  4.728787E-01
  4.659248E-01
  4.649528E-01
  4.615149E-01
  4.649182E-01
  4.636037E-01
  4.667151E-01
  4.649749E-01
  4.692473E-01
  4.691423E-01
  4.727505E-01
  4.684217E-01
  4.665578E-01
  4.595265E-01
  4.596347E-01
  4.577237E-01
  4.627159E-01
  4.631843E-01
  4.680434E-01
  4.670860E-01
  4.705224E-01
  4.688060E-01
  4.722684E-01
  4.709624E-01
  4.745214E-01
  4.725470E-01
  4.751662E-01
  4.728463E-01
  4.757578E-01
  4.733609E-01
  4.665571E-01
  4.651178E-01
  4.690323E-01
  4.654331E-01
  4.678346E-01
  4.639377E-01
  4.663847E-01
  4.621246E-01
  4.640445E-01
  4.599374E-01
  4.630181E-01
  4.607150E-01
  4.656407E-01
  4.646752E-01
  4.697420E-01
  4.667669E-01
  4.677090E-01
  4.605105E-01
  4.602941E-01
  4.567646E-01
  4.631051E-01
  4.646158E-01
  4.711098E-01
  4.683724E-01
  4.704006E-01
  4.667087E-01
  4.711408E-01
  4.697557E-01
  4.734592E-01
  4.688959E-01
  4.703027E-01
  4.666379E-01
  4.709402E-01
  4.690065E-01
  4.721509E-01
  4.672701E-01
  4.680234E-01
  4.626602E-01
  4.645401E-01
  4.612173E-01
  4.656334E-01
  4.649361E-01
  4.711060E-01
  4.699711E-01
  4.731619E-01
  4.677056E-01
  4.675278E-01
  4.614155E-01
  4.632367E-01