# vtk DataFile Version 2.0
title
ASCII
DATASET STRUCTURED_GRID
DIMENSIONS   64   64    1
POINTS   4096  float
  0.000000E+00  0.000000E+00  0.000000E+00
  0.000000E+00  3.906250E-01  0.000000E+00
  0.000000E+00  7.812500E-01  0.000000E+00
  0.000000E+00  1.171875E+00  0.000000E+00
  0.000000E+00  1.562500E+00  0.000000E+00
  0.000000E+00  1.953125E+00  0.000000E+00
  0.000000E+00  2.343750E+00  0.000000E+00
  0.000000E+00  2.734375E+00  0.000000E+00
  0.000000E+00  3.125000E+00  0.000000E+00
  0.000000E+00  3.515625E+00  0.000000E+00
  0.000000E+00  3.906250E+00  0.000000E+00
  0.000000E+00  4.296875E+00  0.000000E+00
  0.000000E+00  4.687500E+00  0.000000E+00
  0.000000E+00  5.078125E+00  0.000000E+00
  0.000000E+00  5.468750E+00  0.000000E+00
  0.000000E+00  5.859375E+00  0.000000E+00
  0.000000E+00  6.250000E+00  0.000000E+00
  0.000000E+00  6.640625E+00  0.000000E+00
  0.000000E+00  7.031250E+00  0.000000E+00
  0.000000E+00  7.421875E+00  0.000000E+00
  0.000000E+00  7.812500E+00  0.000000E+00
  0.000000E+00  8.203125E+00  0.000000E+00
  0.000000E+00  8.593750E+00  0.000000E+00
  0.000000E+00  8.984375E+00  0.000000E+00
  0.000000E+00  9.375000E+00  0.000000E+00
  0.000000E+00  9.765625E+00  0.000000E+00
  0.000000E+00  1.015625E+01  0.000000E+00
  0.000000E+00  1.054688E+01  0.000000E+00
  0.000000E+00  1.093750E+01  0.000000E+00
  0.000000E+00  1.132812E+01  0.000000E+00
  0.000000E+00  1.171875E+01  0.000000E+00
  0.000000E+00  1.210938E+01  0.000000E+00
  0.000000E+00  1.250000E+01  0.000000E+00
  0.000000E+00  1.289062E+01  0.000000E+00
  0.000000E+00  1.328125E+01  0.000000E+00
  0.000000E+00  1.367188E+01  0.000000E+00
  0.000000E+00  1.406250E+01  0.000000E+00
  0.000000E+00  1.445312E+01  0.000000E+00
  0.000000E+00  1.484375E+01  0.000000E+00
  0.000000E+00  1.523438E+01  0.000000E+00
  0.000000E+00  1.562500E+01  0.000000E+00
  0.000000E+00  1.601562E+01  0.000000E+00
  0.000000E+00  1.640625E+01  0.000000E+00
  0.000000E+00  1.679688E+01  0.000000E+00
  0.000000E+00  1.718750E+01  0.000000E+00
  0.000000E+00  1.757812E+01  0.000000E+00
  0.000000E+00  1.796875E+01  0.000000E+00
  0.000000E+00  1.835938E+01  0.000000E+00
  0.000000E+00  1.875000E+01  0.000000E+00
  0.000000E+00  1.914062E+01  0.000000E+00
  0.000000E+00  1.953125E+01  0.000000E+00
  0.000000E+00  1.992188E+01  0.000000E+00
  0.000000E+00  2.031250E+01  0.000000E+00
  0.000000E+00  2.070312E+01  0.000000E+00
  0.000000E+00  2.109375E+01  0.000000E+00
  0.000000E+00  2.148438E+01  0.000000E+00
  0.000000E+00  2.187500E+01  0.000000E+00
  0.000000E+00  2.226562E+01  0.000000E+00
  0.000000E+00  2.265625E+01  0.000000E+00
  0.000000E+00  2.304688E+01  0.000000E+00
  0.000000E+00  2.343750E+01  0.000000E+00
  0.000000E+00  2.382812E+01  0.000000E+00
  0.000000E+00  2.421875E+01  0.000000E+00
  0.000000E+00  2.460938E+01  0.000000E+00
  3.906250E-01  0.000000E+00  0.000000E+00
  3.906250E-01  3.906250E-01  0.000000E+00
  3.906250E-01  7.812500E-01  0.000000E+00
  3.906250E-01  1.171875E+00  0.000000E+00
  3.906250E-01  1.562500E+00  0.000000E+00
  3.906250E-01  1.953125E+00  0.000000E+00
  3.906250E-01  2.343750E+00  0.000000E+00
  3.906250E-01  2.734375E+00  0.000000E+00
  3.906250E-01  3.125000E+00  0.000000E+00
  3.906250E-01  3.515625E+00  0.000000E+00
  3.906250E-01  3.906250E+00  0.000000E+00
  3.906250E-01  4.296875E+00  0.000000E+00
  3.906250E-01  4.687500E+00  0.000000E+00
  3.906250E-01  5.078125E+00  0.000000E+00
  3.906250E-01  5.468750E+00  0.000000E+00
  3.906250E-01  5.859375E+00  0.000000E+00
  3.906250E-01  6.250000E+00  0.000000E+00
  3.906250E-01  6.640625E+00  0.000000E+00
  3.906250E-01  7.031250E+00  0.000000E+00
  3.906250E-01  7.421875E+00  0.000000E+00
  3.906250E-01  7.812500E+00  0.000000E+00
  3.906250E-01  8.203125E+00  0.000000E+00
  3.906250E-01  8.593750E+00  0.000000E+00
  3.906250E-01  8.984375E+00  0.000000E+00
  3.906250E-01  9.375000E+00  0.000000E+00
  3.906250E-01  9.765625E+00  0.000000E+00
  3.906250E-01  1.015625E+01  0.000000E+00
  3.906250E-01  1.054688E+01  0.000000E+00
  3.906250E-01  1.093750E+01  0.000000E+00
  3.906250E-01  1.132812E+01  0.000000E+00
  3.906250E-01  1.171875E+01  0.000000E+00
  3.906250E-01  1.210938E+01  0.000000E+00
  3.906250E-01  1.250000E+01  0.000000E+00
  3.906250E-01  1.289062E+01  0.000000E+00
  3.906250E-01  1.328125E+01  0.000000E+00
  3.906250E-01  1.367188E+01  0.000000E+00
  3.906250E-01  1.406250E+01  0.000000E+00
  3.906250E-01  1.445312E+01  0.000000E+00
  3.906250E-01  1.484375E+01  0.000000E+00
  3.906250E-01  1.523438E+01  0.000000E+00
  3.906250E-01  1.562500E+01  0.000000E+00
  3.906250E-01  1.601562E+01  0.000000E+00
  3.906250E-01  1.640625E+01  0.000000E+00
  3.906250E-01  1.679688E+01  0.000000E+00
  3.906250E-01  1.718750E+01  0.000000E+00
  3.906250E-01  1.757812E+01  0.000000E+00
  3.906250E-01  1.796875E+01  0.000000E+00
  3.906250E-01  1.835938E+01  0.000000E+00
  3.906250E-01  1.875000E+01  0.000000E+00
  3.906250E-01  1.914062E+01  0.000000E+00
  3.906250E-01  1.953125E+01  0.000000E+00
  3.906250E-01  1.992188E+01  0.000000E+00
  3.906250E-01  2.031250E+01  0.000000E+00
  3.906250E-01  2.070312E+01  0.000000E+00
  3.906250E-01  2.109375E+01  0.000000E+00
  3.906250E-01  2.148438E+01  0.000000E+00
  3.906250E-01  2.187500E+01  0.000000E+00
  3.906250E-01  2.226562E+01  0.000000E+00
  3.906250E-01  2.265625E+01  0.000000E+00
  3.906250E-01  2.304688E+01  0.000000E+00
  3.906250E-01  2.343750E+01  0.000000E+00
  3.906250E-01  2.382812E+01  0.000000E+00
  3.906250E-01  2.421875E+01  0.000000E+00
  3.906250E-01  2.460938E+01  0.000000E+00
  7.812500E-01  0.000000E+00  0.000000E+00
  7.812500E-01  3.906250E-01  0.000000E+00
  7.812500E-01  7.812500E-01  0.000000E+00
  7.812500E-01  1.171875E+00  0.000000E+00
  7.812500E-01  1.562500E+00  0.000000E+00
  7.812500E-01  1.953125E+00  0.000000E+00
  7.812500E-01  2.343750E+00  0.000000E+00
  7.812500E-01  2.734375E+00  0.000000E+00
  7.812500E-01  3.125000E+00  0.000000E+00
  7.812500E-01  3.515625E+00  0.000000E+00
  7.812500E-01  3.906250E+00  0.000000E+00
  7.812500E-01  4.296875E+00  0.000000E+00
  7.812500E-01  4.687500E+00  0.000000E+00
  7.812500E-01  5.078125E+00  0.000000E+00
  7.812500E-01  5.468750E+00  0.000000E+00
  7.812500E-01  5.859375E+00  0.000000E+00
  7.812500E-01  6.250000E+00  0.000000E+00
  7.812500E-01  6.640625E+00  0.000000E+00
  7.812500E-01  7.031250E+00  0.000000E+00
  7.812500E-01  7.421875E+00  0.000000E+00
  7.812500E-01  7.812500E+00  0.000000E+00
  7.812500E-01  8.203125E+00  0.000000E+00
  7.812500E-01  8.593750E+00  0.000000E+00
  7.812500E-01  8.984375E+00  0.000000E+00
  7.812500E-01  9.375000E+00  0.000000E+00
  7.812500E-01  9.765625E+00  0.000000E+00
  7.812500E-01  1.015625E+01  0.000000E+00
  7.812500E-01  1.054688E+01  0.000000E+00
  7.812500E-01  1.093750E+01  0.000000E+00
  7.812500E-01  1.132812E+01  0.000000E+00
  7.812500E-01  1.171875E+01  0.000000E+00
  7.812500E-01  1.210938E+01  0.000000E+00
  7.812500E-01  1.250000E+01  0.000000E+00
  7.812500E-01  1.289062E+01  0.000000E+00
  7.812500E-01  1.328125E+01  0.000000E+00
  7.812500E-01  1.367188E+01  0.000000E+00
  7.812500E-01  1.406250E+01  0.000000E+00
  7.812500E-01  1.445312E+01  0.000000E+00
  7.812500E-01  1.484375E+01  0.000000E+00
  7.812500E-01  1.523438E+01  0.000000E+00
  7.812500E-01  1.562500E+01  0.000000E+00
  7.812500E-01  1.601562E+01  0.000000E+00
  7.812500E-01  1.640625E+01  0.000000E+00
  7.812500E-01  1.679688E+01  0.000000E+00
  7.812500E-01  1.718750E+01  0.000000E+00
  7.812500E-01  1.757812E+01  0.000000E+00
  7.812500E-01  1.796875E+01  0.000000E+00
  7.812500E-01  1.835938E+01  0.000000E+00
  7.812500E-01  1.875000E+01  0.000000E+00
  7.812500E-01  1.914062E+01  0.000000E+00
  7.812500E-01  1.953125E+01  0.000000E+00
  7.812500E-01  1.992188E+01  0.000000E+00
  7.812500E-01  2.031250E+01  0.000000E+00
  7.812500E-01  2.070312E+01  0.000000E+00
  7.812500E-01  2.109375E+01  0.000000E+00
  7.812500E-01  2.148438E+01  0.000000E+00
  7.812500E-01  2.187500E+01  0.000000E+00
  7.812500E-01  2.226562E+01  0.000000E+00
  7.812500E-01  2.265625E+01  0.000000E+00
  7.812500E-01  2.304688E+01  0.000000E+00
  7.812500E-01  2.343750E+01  0.000000E+00
  7.812500E-01  2.382812E+01  0.000000E+00
  7.812500E-01  2.421875E+01  0.000000E+00
  7.812500E-01  2.460938E+01  0.000000E+00
  1.171875E+00  0.000000E+00  0.000000E+00
  1.171875E+00  3.906250E-01  0.000000E+00
  1.171875E+00  7.812500E-01  0.000000E+00
  1.171875E+00  1.171875E+00  0.000000E+00
  1.171875E+00  1.562500E+00  0.000000E+00
  1.171875E+00  1.953125E+00  0.000000E+00
  1.171875E+00  2.343750E+00  0.000000E+00
  1.171875E+00  2.734375E+00  0.000000E+00
  1.171875E+00  3.125000E+00  0.000000E+00
  1.171875E+00  3.515625E+00  0.000000E+00
  1.171875E+00  3.906250E+00  0.000000E+00
  1.171875E+00  4.296875E+00  0.000000E+00
  1.171875E+00  4.687500E+00  0.000000E+00
  1.171875E+00  5.078125E+00  0.000000E+00
  1.171875E+00  5.468750E+00  0.000000E+00
  1.171875E+00  5.859375E+00  0.000000E+00
  1.171875E+00  6.250000E+00  0.000000E+00
  1.171875E+00  6.640625E+00  0.000000E+00
  1.171875E+00  7.031250E+00  0.000000E+00
  1.171875E+00  7.421875E+00  0.000000E+00
  1.171875E+00  7.812500E+00  0.000000E+00
  1.171875E+00  8.203125E+00  0.000000E+00
  1.171875E+00  8.593750E+00  0.000000E+00
  1.171875E+00  8.984375E+00  0.000000E+00
  1.171875E+00  9.375000E+00  0.000000E+00
  1.171875E+00  9.765625E+00  0.000000E+00
  1.171875E+00  1.015625E+01  0.000000E+00
  1.171875E+00  1.054688E+01  0.000000E+00
  1.171875E+00  1.093750E+01  0.000000E+00
  1.171875E+00  1.132812E+01  0.000000E+00
  1.171875E+00  1.171875E+01  0.000000E+00
  1.171875E+00  1.210938E+01  0.000000E+00
  1.171875E+00  1.250000E+01  0.000000E+00
  1.171875E+00  1.289062E+01  0.000000E+00
  1.171875E+00  1.328125E+01  0.000000E+00
  1.171875E+00  1.367188E+01  0.000000E+00
  1.171875E+00  1.406250E+01  0.000000E+00
  1.171875E+00  1.445312E+01  0.000000E+00
[...]
POINT_DATA   4096
SCALARS CON  float  1
LOOKUP_TABLE default
  4.714648E-01
  4.733867E-01
  4.813344E-01
  4.769492E-01
  4.771648E-01
  4.687410E-01
  4.710446E-01
  4.688193E-01
  4.763449E-01
  4.743240E-01
  4.770615E-01
  4.688802E-01
  4.685356E-01
  4.624484E-01
  4.678085E-01
  4.675971E-01
  4.757203E-01
  4.737658E-01
  4.770669E-01
  4.700556E-01
  4.705080E-01
  4.633319E-01
  4.648114E-01
  4.585162E-01
  4.607350E-01
  4.564725E-01
  4.629045E-01
  4.639052E-01
  4.736789E-01
  4.732654E-01
  4.772985E-01
  4.704465E-01
  4.717085E-01
  4.671341E-01
  4.729250E-01
  4.708321E-01
  4.747536E-01
  4.678783E-01
  4.677945E-01
  4.603173E-01
  4.625517E-01
  4.579102E-01
  4.612904E-01
  4.560289E-01
  4.589694E-01
  4.559752E-01
  4.646983E-01
  4.688058E-01
  4.813529E-01
  4.813983E-01
  4.823229E-01
  4.692923E-01
  4.640125E-01
  4.561996E-01
  4.647403E-01
  4.720076E-01
  4.885954E-01
  4.917260E-01
  4.946349E-01
  4.825842E-01
  4.765732E-01
  4.646145E-01
  4.651775E-01
  4.625008E-01
  4.722769E-01
  4.759632E-01
  4.853324E-01
  4.835172E-01
  4.826864E-01
  4.719014E-01
  4.688502E-01
  4.634474E-01
  4.690870E-01
  4.702046E-01
  4.769712E-01
  4.741383E-01
  4.751017E-01
  4.682069E-01
  4.687938E-01
  4.650782E-01
  4.703496E-01
  4.699455E-01
  4.750091E-01
  4.708366E-01
  4.710645E-01
  4.641651E-01
  4.651385E-01
  4.613587E-01
  4.653393E-01
  4.629397E-01
  4.670770E-01
  4.650729E-01
  4.706402E-01
  4.702031E-01
  4.758485E-01
  4.730488E-01
  4.747368E-01
  4.683298E-01
  4.684360E-01
  4.630611E-01
  4.659659E-01
  4.634793E-01
  4.676341E-01
  4.639339E-01
  4.650253E-01
  4.581683E-01
  4.577140E-01
  4.517968E-01
  4.545656E-01
  4.537861E-01
  4.629598E-01
  4.680988E-01
  4.794780E-01
  4.796895E-01
  4.798754E-01
  4.687978E-01
  4.654161E-01
  4.618668E-01
  4.728391E-01
  4.817323E-01
  4.951730E-01
  4.941368E-01
  4.915202E-01
  4.780402E-01
  4.722200E-01
  4.634718E-01
  4.652479E-01
  4.639118E-01
  4.636054E-01
  4.750806E-01
  4.860582E-01
  4.875428E-01
  4.830584E-01
  4.724578E-01
  4.656438E-01
  4.619994E-01
  4.656137E-01
  4.696686E-01
  4.750279E-01
  4.753656E-01
  4.747644E-01
  4.706093E-01
  4.690524E-01
  4.671376E-01
  4.689712E-01
  4.694295E-01
  4.715469E-01
  4.705144E-01
  4.706087E-01
  4.681829E-01
  4.677925E-01
  4.653730E-01
  4.651231E-01
  4.632027E-01
  4.641971E-01
  4.640452E-01
  4.662725E-01
  4.657140E-01
  4.660132E-01
  4.635450E-01
  4.637320E-01
  4.633621E-01
  4.663852E-01
  4.673747E-01
  4.691288E-01
  4.670149E-01
  4.656939E-01
  4.617610E-01
  4.597829E-01
  4.557499E-01
  4.540460E-01
  4.512389E-01
  4.525046E-01
  4.547336E-01
  4.622194E-01
  4.695337E-01
  4.778837E-01
  4.797128E-01
  4.777340E-01
  4.697188E-01
  4.644735E-01
  4.623992E-01
  4.695155E-01
  4.795568E-01
  4.911224E-01
  4.940276E-01
  4.900311E-01
  4.772267E-01
  4.648996E-01
  4.536717E-01
  4.506912E-01
  4.529455E-01
  4.636822E-01
  4.760082E-01
  4.831767E-01
  4.876840E-01
  4.798562E-01
  4.704492E-01
  4.579227E-01
  4.546775E-01
  4.547778E-01
  4.637829E-01
  4.703089E-01
  4.778339E-01
  4.765778E-01
  4.747398E-01
  4.675173E-01
  4.657082E-01
  4.637174E-01
  4.686767E-01
  4.707751E-01
  4.749657E-01
  4.726098E-01
  4.722839E-01
  4.683052E-01
  4.692846E-01
  4.672035E-01
  4.683599E-01
  4.646265E-01
  4.642556E-01
  4.612287E-01
  4.639613E-01
  4.643905E-01
  4.682279E-01
  4.662320E-01
  4.656609E-01
  4.604856E-01
  4.604814E-01
  4.595761E-01
  4.647111E-01
  4.660951E-01
  4.687848E-01
  4.643843E-01
  4.618166E-01
  4.561281E-01
  4.567752E-01
  4.567322E-01
  4.626553E-01
  4.658015E-01
  4.724334E-01
  4.735344E-01
  4.752374E-01
  4.696917E-01
  4.663835E-01
  4.613549E-01
  4.651075E-01
  4.703852E-01
  4.814156E-01
  4.854326E-01
  4.863817E-01
  4.771027E-01
  4.690452E-01
  4.586960E-01
  4.556255E-01
  4.528287E-01
  4.579498E-01
  4.589215E-01
  4.744038E-01
  4.787730E-01
  4.845579E-01
  4.735766E-01
  4.670537E-01
  4.535943E-01
  4.541359E-01
  4.523938E-01
  4.631388E-01
  4.660045E-01
  4.749230E-01
  4.712547E-01
  4.730610E-01
  4.654660E-01
  4.678782E-01
  4.642465E-01
  4.712185E-01
  4.702509E-01
  4.768928E-01
  4.729462E-01
  4.756693E-01
  4.685206E-01
  4.694848E-01
  4.620701E-01
  4.638565E-01
  4.581407E-01
  4.620873E-01
  4.584463E-01
  4.636941E-01
  4.602309E-01
  4.648441E-01
  4.606069E-01
  4.651090E-01
  4.617100E-01
  4.674773E-01
  4.648229E-01
  4.701025E-01
  4.655805E-01
  4.681836E-01
  4.612579E-01
  4.630985E-01
  4.579728E-01
  4.636128E-01
  4.626547E-01
  4.709406E-01
  4.699139E-01
  4.757833E-01
  4.709614E-01
  4.727077E-01
  4.643449E-01
  4.642044E-01
  4.570245E-01
  4.615106E-01
  4.612450E-01
  4.719275E-01
  4.734393E-01
  4.798519E-01
  4.725074E-01
  4.696973E-01
  4.569203E-01
  4.542662E-01
  4.473445E-01
  4.546001E-01
  4.645806E-01
  4.746224E-01
  4.743040E-01
  4.797530E-01
  4.693183E-01
  4.647153E-01
  4.507904E-01
  4.510915E-01
  4.479444E-01
  4.594617E-01
  4.629300E-01
  4.739967E-01
  4.705307E-01
  4.725999E-01
  4.632964E-01
  4.657319E-01
  4.624605E-01
  4.725466E-01
  4.735344E-01
  4.817407E-01
  4.757062E-01
  4.762673E-01
  4.662402E-01
  4.673504E-01
  4.603258E-01
  4.638427E-01
  4.576801E-01
  4.617783E-01
  4.579016E-01
  4.662745E-01
  4.663571E-01
  4.751648E-01
  4.705657E-01
  4.719835E-01
  4.621254E-01
  4.640545E-01
  4.602305E-01
  4.693119E-01
  4.685636E-01
  4.746867E-01
  4.675641E-01
  4.692607E-01
  4.633239E-01
  4.707239E-01
  4.704906E-01
  4.792560E-01
  4.749212E-01
  4.770550E-01
  4.673714E-01
  4.672604E-01
  4.581578E-01
  4.603416E-01
  4.550622E-01
  4.621681E-01
  4.614366E-01
  4.703413E-01
  4.670757E-01
  4.706188E-01
  4.626639E-01
  4.649850E-01
  4.590793E-01
  4.641089E-01
  4.598745E-01
  4.661877E-01
  4.629737E-01
  4.710853E-01
  4.709562E-01
  4.749602E-01
  4.672958E-01
  4.647840E-01
  4.556705E-01
  4.572272E-01
  4.552749E-01
  4.632916E-01
  4.641669E-01
  4.705673E-01
  4.666559E-01
  4.683789E-01
  4.629688E-01
  4.672534E-01
  4.669194E-01
  4.757695E-01
  4.766457E-01
  4.823288E-01
  4.766859E-01
  4.754137E-01
  4.652324E-01
  4.629910E-01
  4.551838E-01
  4.572592E-01
  4.543903E-01
  4.608010E-01
  4.608439E-01
  4.684043E-01
  4.677371E-01
  4.731879E-01
  4.697554E-01
  4.731075E-01
  4.692809E-01
  4.737733E-01
  4.712366E-01
  4.755176E-01
  4.706774E-01
  4.716949E-01
  4.648778E-01
  4.671130E-01
  4.648600E-01
  4.727227E-01
  4.737907E-01
  4.803918E-01
  4.758824E-01
  4.757689E-01
  4.669447E-01
  4.662373E-01
  4.595139E-01
  4.614504E-01
  4.568354E-01
  4.603954E-01
  4.574562E-01
  4.627960E-01
  4.611499E-01
  4.667747E-01
  4.642033E-01
  4.679914E-01
  4.631950E-01
  4.651416E-01
  4.599913E-01
  4.639631E-01
  4.673340E-01
  4.682250E-01
  4.680761E-01
  4.710901E-01
  4.691641E-01
  4.676373E-01
  4.621134E-01
  4.609623E-01
  4.600283E-01
  4.649969E-01
  4.679806E-01
  4.722119E-01
  4.701729E-01
  4.684735E-01
  4.638007E-01
  4.650037E-01
  4.675815E-01
  4.761015E-01
  4.809923E-01
  4.844173E-01
  4.790228E-01
  4.727832E-01
  4.634851E-01
  4.599974E-01
  4.571515E-01
  4.596716E-01
  4.601668E-01
  4.638612E-01
  4.653605E-01
  4.711476E-01
  4.747173E-01
  4.799984E-01
  4.790038E-01
  4.775243E-01
  4.717846E-01
  4.707290E-01
  4.699153E-01
  4.740570E-01
  4.743567E-01
  4.747238E-01
  4.698078E-01
  4.682901E-01
  4.668537E-01
  4.716784E-01
  4.745080E-01
  4.781112E-01
  4.749929E-01
  4.722063E-01
  4.662031E-01
  4.646378E-01
  4.618811E-01
  4.633083E-01
  4.626297E-01
  4.654667E-01
  4.652948E-01
  4.669603E-01
  4.640298E-01
  4.633228E-01
  4.609373E-01
  4.641701E-01
  4.665093E-01
  4.714950E-01
  4.710376E-01
  4.709622E-01
  4.612914E-01
  4.621879E-01
  4.654897E-01
  4.685153E-01
  4.712010E-01
  4.716149E-01
  4.716044E-01
  4.709099E-01
  4.716748E-01
  4.724077E-01
  4.734438E-01
  4.722959E-01
  4.700918E-01
  4.666946E-01
  4.654624E-01
  4.665707E-01
  4.713487E-01
  4.767283E-01
  4.813187E-01
  4.814077E-01
  4.777334E-01
  4.704500E-01
  4.635552E-01
  4.581639E-01
  4.569890E-01
  4.586831E-01
  4.633054E-01
  4.675800E-01
  4.712199E-01
  4.722749E-01
  4.725689E-01
  4.717771E-01
  4.722193E-01
  4.731528E-01
  4.758554E-01
  4.780523E-01
  4.795556E-01
  4.777485E-01
  4.739362E-01
  4.682159E-01
  4.641658E-01
  4.622272E-01
  4.640548E-01
  4.670373E-01
  4.704348E-01
  4.713107E-01
  4.708735E-01
  4.690071E-01
  4.684612E-01
  4.683495E-01
  4.693611E-01
  4.691805E-01
  4.687743E-01
  4.671945E-01
  4.664779E-01
  4.657172E-01
  4.663044E-01
  4.667229E-01
  4.680198E-01
  4.683842E-01
  4.685604E-01
  4.667838E-01
  4.646488E-01
  4.619116E-01
  4.616305E-01
  4.593381E-01
  4.627123E-01
  4.670466E-01
  4.731115E-01
  4.748911E-01
  4.755376E-01
  4.730689E-01
  4.732027E-01
  4.732695E-01
  4.758643E-01
  4.753556E-01
  4.739612E-01
  4.687119E-01
  4.656284E-01
  4.639017E-01
  4.682921E-01
  4.737541E-01
  4.801759E-01
  4.802954E-01
  4.766735E-01
  4.681226E-01
  4.623610E-01
  4.589972E-01
  4.621624E-01
  4.664350E-01
  4.724418E-01
  4.744391E-01
  4.757656E-01
  4.741552E-01
  4.745492E-01
  4.735644E-01
  4.740806E-01
  4.721103E-01
  4.718384E-01
  4.707161E-01
  4.725272E-01
  4.725415E-01
  4.727236E-01
  4.689451E-01
  4.659976E-01
  4.624243E-01
  4.631411E-01
  4.641685E-01
  4.673203E-01
  4.675318E-01
  4.683701E-01
  4.674715E-01
  4.693613E-01
  4.701429E-01
  4.722534E-01
  4.715323E-01
  4.721930E-01
  4.716870E-01
  4.736720E-01
  4.734011E-01
  4.732600E-01
  4.699154E-01
  4.686653E-01
  4.675063E-01
  4.697764E-01
  4.698895E-01
  4.694161E-01
  4.647394E-01
  4.548245E-01
  4.562692E-01
  4.606374E-01
  4.664229E-01
  4.721076E-01
  4.758059E-01
  4.772325E-01
  4.768181E-01
  4.760910E-01
  4.754877E-01
  4.749559E-01
  4.733051E-01
  4.704053E-01
  4.668127E-01
  4.645258E-01
  4.647011E-01
  4.677577E-01
  4.720526E-01
  4.755758E-01
  4.759979E-01
  4.730037E-01
  4.676083E-01
  4.625765E-01
  4.600968E-01
  4.618265E-01
  4.670723E-01
  4.737775E-01
  4.783862E-01
  4.788096E-01
  4.748110E-01
  4.690031E-01
  4.642226E-01
  4.629405E-01
  4.652459E-01
  4.699474E-01
  4.741313E-01
  4.755691E-01
  4.730116E-01
  4.678781E-01
  4.623730E-01
  4.590593E-01
  4.585101E-01
  4.602251E-01
  4.623501E-01
  4.639914E-01
  4.648651E-01
  4.661592E-01
  4.683929E-01
  4.715705E-01
  4.740520E-01
  4.746823E-01
  4.729302E-01
  4.703336E-01
  4.685162E-01
  4.690107E-01
  4.714089E-01
  4.746954E-01
  4.769725E-01
  4.773651E-01
  4.752487E-01
  4.712316E-01
  4.658438E-01
  4.605187E-01
  4.563471E-01
  4.578666E-01
  4.579291E-01
  4.596416E-01
  4.662361E-01
  4.706344E-01
  4.746028E-01
  4.730011E-01
  4.717183E-01
  4.687568E-01
  4.699013E-01
  4.702127E-01
  4.721351E-01
  4.696293E-01
  4.671532E-01
  4.622615E-01
  4.618559E-01
  4.630073E-01
  4.692261E-01
  4.732526E-01
  4.762573E-01
  4.725315E-01
  4.681069E-01
  4.620819E-01
  4.619073E-01
  4.641575E-01
  4.715671E-01
  4.765743E-01
  4.806362E-01
  4.783958E-01
  4.756424E-01
  4.702845E-01
  4.682403E-01
  4.653135E-01
  4.654017E-01
  4.638982E-01
  4.652417E-01
  4.649438E-01
  4.667255E-01
  4.654145E-01
  4.651825E-01
  4.623750E-01
  4.624647E-01
  4.617151E-01
  4.641466E-01
  4.645597E-01
  4.668783E-01
  4.670537E-01
  4.699060E-01
  4.706873E-01
  4.725477E-01
  4.701619E-01
  4.685606E-01
  4.654848E-01
  4.672975E-01
  4.698308E-01
  4.755627E-01
  4.775603E-01
  4.789714E-01
  4.761187E-01
  4.749994E-01
  4.719620E-01
  4.708057E-01
  4.662271E-01
  4.627988E-01
  4.558353E-01
  4.592216E-01
  4.606595E-01
  4.663668E-01
  4.681890E-01
  4.721485E-01
  4.706381E-01
  4.712421E-01
  4.678907E-01
  4.684926E-01
  4.659691E-01
  4.668482E-01
  4.636410E-01
  4.638105E-01
  4.612656E-01
  4.639268E-01
  4.648313E-01
  4.703018E-01
  4.719082E-01
  4.753096E-01
  4.724193E-01
  4.705572E-01
  4.640745E-01
  4.623464E-01
  4.603502E-01
  4.657203E-01
  4.697929E-01
  4.764363E-01
  4.755573E-01
  4.736386E-01
  4.656362E-01
  4.620525E-01
  4.583699E-01
  4.620753E-01
  4.644285E-01
  4.697740E-01
  4.688587E-01
  4.684659E-01
  4.630149E-01
  4.617662E-01
  4.590579E-01
  4.619399E-01
  4.622711E-01
  4.659228E-01
  4.653462E-01
  4.680194E-01
  4.674646E-01
  4.708168E-01
  4.701489E-01
  4.714577E-01
  4.672075E-01
  4.653826E-01
  4.607233E-01
  4.620611E-01
  4.630749E-01
  4.701126E-01
  4.741648E-01
  4.800702E-01
  4.790392E-01
  4.779416E-01
  4.707047E-01
  4.662973E-01
  4.593828E-01
  4.581419E-01
  4.640299E-01
  4.643989E-01
  4.633350E-01
  4.667833E-01
  4.674994E-01
  4.698958E-01
  4.673055E-01
  4.665061E-01
  4.630430E-01
  4.639819E-01
  4.631889E-01
  4.655176E-01
  4.639146E-01
  4.642822E-01
  4.617027E-01
  4.636507E-01
  4.650553E-01
  4.714013E-01
  4.747989E-01
  4.788805E-01
  4.761207E-01
  4.730051E-01
  4.657217E-01
  4.629928E-01
  4.605400E-01
  4.641864E-01
  4.662741E-01
  4.706266E-01
  4.699561E-01
  4.705185E-01
  4.674804E-01
  4.677641E-01
  4.654093E-01
  4.659451E-01
  4.632631E-01
  4.638341E-01
  4.623173E-01
  4.647933E-01
  4.646587E-01
  4.671005E-01
  4.658777E-01
  4.674280E-01
  4.663996E-01
  4.689287E-01
  4.685617E-01
  4.706982E-01
  4.690685E-01
  4.697284E-01
  4.667009E-01
  4.659486E-01
  4.618109E-01
  4.613227E-01
  4.598844E-01
  4.641031E-01
  4.671525E-01
  4.728860E-01
  4.732425E-01
  4.737056E-01
  4.695185E-01
  4.686553E-01
  4.662344E-01
  4.679173E-01
  4.665088E-01
  4.671208E-01
  4.663855E-01
  4.685060E-01
  4.674827E-01
  4.676157E-01
  4.666548E-01
  4.681121E-01
  4.680941E-01
  4.691196E-01
  4.675017E-01
  4.666599E-01
  4.637711E-01
  4.627567E-01
  4.610360E-01
  4.624754E-01
  4.639350E-01
  4.681759E-01
  4.710107E-01
  4.750279E-01
  4.766327E-01
  4.788460E-01
  4.776010E-01
  4.753479E-01
  4.687782E-01
  4.627958E-01
  4.567574E-01
  4.560343E-01
  4.574851E-01
  4.623140E-01
  4.643507E-01
  4.652352E-01
  4.624191E-01
  4.615478E-01
  4.613444E-01
  4.652596E-01
  4.683366E-01
  4.716030E-01
  4.705012E-01
  4.688587E-01
  4.651251E-01
  4.642569E-01
  4.636182E-01
  4.660653E-01
  4.673460E-01
  4.698628E-01
  4.698295E-01
  4.704360E-01
  4.684875E-01
  4.675151E-01
  4.645915E-01
  4.635334E-01
  4.616211E-01
  4.624823E-01
  4.627499E-01
  4.652184E-01
  4.660241E-01
  4.680241E-01
  4.676315E-01
  4.678629E-01
  4.652462E-01
  4.634272E-01
  4.602073E-01
  4.602116E-01
  4.607808E-01
  4.644723E-01
  4.773484E-01
  4.755092E-01
  4.716004E-01
  4.685441E-01
  4.667970E-01
  4.667464E-01
  4.668062E-01
  4.669219E-01
  4.662703E-01
  4.657021E-01
  4.647800E-01
  4.643266E-01
  4.639103E-01
  4.645231E-01
  4.657982E-01
  4.684371E-01
  4.715043E-01
  4.751190E-01
  4.778798E-01
  4.795542E-01
  4.785951E-01
  4.752817E-01
  4.695630E-01
  4.637088E-01
  4.588827E-01
  4.567874E-01
  4.566241E-01
  4.581039E-01
  4.596815E-01
  4.617833E-01
  4.640074E-01
  4.670021E-01
  4.693500E-01
  4.706068E-01
  4.696441E-01
  4.678746E-01
  4.661143E-01
  4.660295E-01
  4.667671E-01
  4.680163E-01
  4.684509E-01
  4.689674E-01
  4.695711E-01
  4.710238E-01
  4.717755E-01
  4.712530E-01
  4.683266E-01
  4.644790E-01
  4.606754E-01
  4.590854E-01
  4.598143E-01
  4.633326E-01
  4.678642E-01
  4.722113E-01
  4.737077E-01
  4.717754E-01
  4.660900E-01
  4.593353E-01
  4.537260E-01
  4.523212E-01
  4.553168E-01
  4.622720E-01
  4.698873E-01
  4.757720E-01
  4.793065E-01
  4.788309E-01
  4.746996E-01
  4.689390E-01
  4.655885E-01
  4.649367E-01
  4.671295E-01
  4.691768E-01
  4.702079E-01
  4.685235E-01
  4.657913E-01
  4.626599E-01
  4.618229E-01
  4.631678E-01
  4.671131E-01
  4.708982E-01
  4.736784E-01
  4.739521E-01
  4.737724E-01
  4.735228E-01
  4.742605E-01
  4.734770E-01
  4.705024E-01
  4.644223E-01
  4.584162E-01
  4.542475E-01
  4.541447E-01
  4.561180E-01
  4.588792E-01
  4.599133E-01
  4.606221E-01
  4.617883E-01
  4.656174E-01
  4.704469E-01
  4.749836E-01
  4.759923E-01
  4.738944E-01
  4.691276E-01
  4.650088E-01
  4.623529E-01
  4.626954E-01
  4.645332E-01
  4.677343E-01
  4.700054E-01
  4.711339E-01
  4.694422E-01
  4.661844E-01
  4.616983E-01
  4.588742E-01
  4.583578E-01
  4.615871E-01
  4.664517E-01
  4.715240E-01
  4.733619E-01
  4.719221E-01
  4.671294E-01
  4.619817E-01
  4.571785E-01
  4.544406E-01
  4.531320E-01
  4.548415E-01
  4.592503E-01
  4.668529E-01
  4.743078E-01
  4.856984E-01
  4.809715E-01
  4.754024E-01
  4.680705E-01
  4.650731E-01
  4.627125E-01
  4.640591E-01
  4.638802E-01
  4.653136E-01
  4.640906E-01
  4.644904E-01
  4.630721E-01
  4.643811E-01
  4.645880E-01
  4.672766E-01
  4.676347E-01
  4.691015E-01
  4.677993E-01
  4.685142E-01
  4.678976E-01
  4.698263E-01
  4.693545E-01
  4.695399E-01
  4.662575E-01
  4.644297E-01
  4.611703E-01
  4.610110E-01
  4.598306E-01
  4.614343E-01
  4.620738E-01
  4.661594E-01
  4.694160E-01
  4.744405E-01
  4.752867E-01
  4.749902E-01
  4.703380E-01
  4.674647E-01
  4.640558E-01
  4.643914E-01
  4.636859E-01
  4.653156E-01
  4.654597E-01
  4.684855E-01
  4.698527E-01
  4.719531E-01
  4.691645E-01
  4.655050E-01
  4.588799E-01
  4.560183E-01
  4.549108E-01
  4.598021E-01
  4.652730E-01
  4.727506E-01
  4.755533E-01
  4.761374E-01
  4.705920E-01
  4.646747E-01
  4.569460E-01
  4.539215E-01
  4.533173E-01
  4.594633E-01
  4.671167E-01
  4.775032E-01
  4.831670E-01
  4.794716E-01
  4.762608E-01
  4.741276E-01
  4.661955E-01
  4.642085E-01
  4.604815E-01
  4.635680E-01
  4.628298E-01
  4.657042E-01
  4.625432E-01
  4.630218E-01
  4.595306E-01
  4.623438E-01
  4.626127E-01
  4.680647E-01
  4.674805E-01
  4.684958E-01
  4.626827E-01
  4.616159E-01
  4.587994E-01
  4.637448E-01
  4.654812E-01
  4.701613E-01
  4.672662E-01
  4.669757E-01
  4.626198E-01
  4.647478E-01
  4.638128E-01
  4.672338E-01
  4.650318E-01
  4.670520E-01
  4.659035E-01
  4.713912E-01
  4.732290E-01
  4.781034E-01
  4.749898E-01
  4.730189E-01
  4.649170E-01
  4.621772E-01
  4.575291E-01
  4.604909E-01
  4.614344E-01
  4.679251E-01
  4.690001E-01
  4.720156E-01
  4.671706E-01
  4.644779E-01
  4.570720E-01
  4.563737E-01
  4.548501E-01
  4.612170E-01
  4.645842E-01
  4.712960E-01
  4.703922E-01
  4.711073E-01
  4.662253E-01
  4.668469E-01
  4.644970E-01
  4.673382E-01
  4.653158E-01
  4.677314E-01
  4.668279E-01
  4.724574E-01
  4.744719E-01
  4.774296E-01
  4.713408E-01
  4.716871E-01
  4.645953E-01
  4.655077E-01
  4.597807E-01
  4.619448E-01
  4.571578E-01
  4.601978E-01
  4.566107E-01
  4.612927E-01
  4.595687E-01
  4.657819E-01
  4.644026E-01
  4.690898E-01
  4.642556E-01
  4.649009E-01
  4.576217E-01
  4.589864E-01
  4.555872E-01
  4.620330E-01
  4.624211E-01
  4.698395E-01
  4.685073E-01
  4.732757E-01
  4.698728E-01
  4.734438E-01
  4.692048E-01
  4.722728E-01
  4.686870E-01
  4.740388E-01
  4.731707E-01
  4.791538E-01
  4.750637E-01
  4.751252E-01
  4.659549E-01
  4.649468E-01
  4.590462E-01
  4.629167E-01
  4.607578E-01
  4.664591E-01
  4.653063E-01
  4.720815E-01
  4.710279E-01
  4.751738E-01
  4.684366E-01
  4.664123E-01
  4.567952E-01
  4.569257E-01
  4.534230E-01
  4.603711E-01
  4.614228E-01
  4.694808E-01
  4.687363E-01
  4.739589E-01
  4.708882E-01
  4.748919E-01
  4.713548E-01
  4.751147E-01
  4.714103E-01
  4.754430E-01
  4.726297E-01
  4.775358E-01
  4.744751E-01
  4.667639E-01
  4.651779E-01
  4.700410E-01
  4.650211E-01
  4.670492E-01
  4.614099E-01
  4.644725E-01
  4.600293E-01
  4.633743E-01
  4.585091E-01
  4.618122E-01
  4.583276E-01
  4.643977E-01
  4.636332E-01
  4.702821E-01
  4.664676E-01
  4.673984E-01
  4.585105E-01
  4.585470E-01
  4.541498E-01
  4.614231E-01
  4.625731E-01
  4.706657E-01
  4.683067E-01
  4.722223E-01
  4.682572E-01
  4.733007E-01
  4.706282E-01
  4.748074E-01
  4.694164E-01
  4.715756E-01
  4.669752E-01
  4.721333E-01
  4.700000E-01
  4.747159E-01
  4.690909E-01
  4.693928E-01
  4.612126E-01
  4.622855E-01
  4.580618E-01
  4.646450E-01
  4.653687E-01
  4.743884E-01
  4.735781E-01
  4.773698E-01
  4.696829E-01
  4.682233E-01
  4.594820E-01
  4.611742E-01