# vtk DataFile Version 2.0
title
ASCII
DATASET STRUCTURED_GRID
DIMENSIONS   64   64    1
POINTS   4096  float
  0.000000E+00  0.000000E+00  0.000000E+00
  0.000000E+00  3.906250E-01  0.000000E+00
  0.000000E+00  7.812500E-01  0.000000E+00
  0.000000E+00  1.171875E+00  0.000000E+00
  0.000000E+00  1.562500E+00  0.000000E+00
  0.000000E+00  1.953125E+00  0.000000E+00
  0.000000E+00  2.343750E+00  0.000000E+00
  0.000000E+00  2.734375E+00  0.000000E+00
  0.000000E+00  3.125000E+00  0.000000E+00
  0.000000E+00  3.515625E+00  0.000000E+00
  0.000000E+00  3.906250E+00  0.000000E+00
  0.000000E+00  4.296875E+00  0.000000E+00
  0.000000E+00  4.687500E+00  0.000000E+00
  0.000000E+00  5.078125E+00  0.000000E+00
  0.000000E+00  5.468750E+00  0.000000E+00
  0.000000E+00  5.859375E+00  0.000000E+00
  0.000000E+00  6.250000E+00  0.000000E+00
  0.000000E+00  6.640625E+00  0.000000E+00
  0.000000E+00  7.031250E+00  0.000000E+00
  0.000000E+00  7.421875E+00  0.000000E+00
  0.000000E+00  7.812500E+00  0.000000E+00
  0.000000E+00  8.203125E+00  0.000000E+00
  0.000000E+00  8.593750E+00  0.000000E+00
  0.000000E+00  8.984375E+00  0.000000E+00
  0.000000E+00  9.375000E+00  0.000000E+00
  0.000000E+00  9.765625E+00  0.000000E+00
  0.000000E+00  1.015625E+01  0.000000E+00
  0.000000E+00  1.054688E+01  0.000000E+00
  0.000000E+00  1.093750E+01  0.000000E+00
  0.000000E+00  1.132812E+01  0.000000E+00
  0.000000E+00  1.171875E+01  0.000000E+00
  0.000000E+00  1.210938E+01  0.000000E+00
  0.000000E+00  1.250000E+01  0.000000E+00
  0.000000E+00  1.289062E+01  0.000000E+00
  0.000000E+00  1.328125E+01  0.000000E+00
  0.000000E+00  1.367188E+01  0.000000E+00
  0.000000E+00  1.406250E+01  0.000000E+00
  0.000000E+00  1.445312E+01  0.000000E+00
  0.000000E+00  1.484375E+01  0.000000E+00
  0.000000E+00  1.523438E+01  0.000000E+00
  0.000000E+00  1.562500E+01  0.000000E+00
  0.000000E+00  1.601562E+01  0.000000E+00
  0.000000E+00  1.640625E+01  0.000000E+00
  0.000000E+00  1.679688E+01  0.000000E+00
  0.000000E+00  1.718750E+01  0.000000E+00
  0.000000E+00  1.757812E+01  0.000000E+00
  0.000000E+00  1.796875E+01  0.000000E+00
  0.000000E+00  1.835938E+01  0.000000E+00
  0.000000E+00  1.875000E+01  0.000000E+00
  0.000000E+00  1.914062E+01  0.000000E+00
  0.000000E+00  1.953125E+01  0.000000E+00
  0.000000E+00  1.992188E+01  0.000000E+00
  0.000000E+00  2.031250E+01  0.000000E+00
  0.000000E+00  2.070312E+01  0.000000E+00
  0.000000E+00  2.109375E+01  0.000000E+00
  0.000000E+00  2.148438E+01  0.000000E+00
  0.000000E+00  2.187500E+01  0.000000E+00
  0.000000E+00  2.226562E+01  0.000000E+00
  0.000000E+00  2.265625E+01  0.000000E+00
  0.000000E+00  2.304688E+01  0.000000E+00
  0.000000E+00  2.343750E+01  0.000000E+00
  0.000000E+00  2.382812E+01  0.000000E+00
  0.000000E+00  2.421875E+01  0.000000E+00
  0.000000E+00  2.460938E+01  0.000000E+00
  3.906250E-01  0.000000E+00  0.000000E+00
  3.906250E-01  3.906250E-01  0.000000E+00
  3.906250E-01  7.812500E-01  0.000000E+00
  3.906250E-01  1.171875E+00  0.000000E+00
  3.906250E-01  1.562500E+00  0.000000E+00
  3.906250E-01  1.953125E+00  0.000000E+00
  3.906250E-01  2.343750E+00  0.000000E+00
  3.906250E-01  2.734375E+00  0.000000E+00
  3.906250E-01  3.125000E+00  0.000000E+00
  3.906250E-01  3.515625E+00  0.000000E+00
  3.906250E-01  3.906250E+00  0.000000E+00
  3.906250E-01  4.296875E+00  0.000000E+00
  3.906250E-01  4.687500E+00  0.000000E+00
  3.906250E-01  5.078125E+00  0.000000E+00
  3.906250E-01  5.468750E+00  0.000000E+00
  3.906250E-01  5.859375E+00  0.000000E+00
  3.906250E-01  6.250000E+00  0.000000E+00
  3.906250E-01  6.640625E+00  0.000000E+00
  3.906250E-01  7.031250E+00  0.000000E+00
  3.906250E-01  7.421875E+00  0.000000E+00
  3.906250E-01  7.812500E+00  0.000000E+00
  3.906250E-01  8.203125E+00  0.000000E+00
  3.906250E-01  8.593750E+00  0.000000E+00
  3.906250E-01  8.984375E+00  0.000000E+00
  3.906250E-01  9.375000E+00  0.000000E+00
  3.906250E-01  9.765625E+00  0.000000E+00
  3.906250E-01  1.015625E+01  0.000000E+00
  3.906250E-01  1.054688E+01  0.000000E+00
  3.906250E-01  1.093750E+01  0.000000E+00
  3.906250E-01  1.132812E+01  0.000000E+00
  3.906250E-01  1.171875E+01  0.000000E+00
  3.906250E-01  1.210938E+01  0.000000E+00
  3.906250E-01  1.250000E+01  0.000000E+00
  3.906250E-01  1.289062E+01  0.000000E+00
  3.906250E-01  1.328125E+01  0.000000E+00
  3.906250E-01  1.367188E+01  0.000000E+00
  3.906250E-01  1.406250E+01  0.000000E+00
  3.906250E-01  1.445312E+01  0.000000E+00
  3.906250E-01  1.484375E+01  0.000000E+00
  3.906250E-01  1.523438E+01  0.000000E+00
  3.906250E-01  1.562500E+01  0.000000E+00
  3.906250E-01  1.601562E+01  0.000000E+00
  3.906250E-01  1.640625E+01  0.000000E+00
  3.906250E-01  1.679688E+01  0.000000E+00
  3.906250E-01  1.718750E+01  0.000000E+00
  3.906250E-01  1.757812E+01  0.000000E+00
  3.906250E-01  1.796875E+01  0.000000E+00
  3.906250E-01  1.835938E+01  0.000000E+00
  3.906250E-01  1.875000E+01  0.000000E+00
  3.906250E-01  1.914062E+01  0.000000E+00
  3.906250E-01  1.953125E+01  0.000000E+00
  3.906250E-01  1.992188E+01  0.000000E+00
  3.906250E-01  2.031250E+01  0.000000E+00
  3.906250E-01  2.070312E+01  0.000000E+00
  3.906250E-01  2.109375E+01  0.000000E+00
  3.906250E-01  2.148438E+01  0.000000E+00
  3.906250E-01  2.187500E+01  0.000000E+00
  3.906250E-01  2.226562E+01  0.000000E+00
  3.906250E-01  2.265625E+01  0.000000E+00
  3.906250E-01  2.304688E+01  0.000000E+00
  3.906250E-01  2.343750E+01  0.000000E+00
  3.906250E-01  2.382812E+01  0.000000E+00
  3.906250E-01  2.421875E+01  0.000000E+00
  3.906250E-01  2.460938E+01  0.000000E+00
  7.812500E-01  0.000000E+00  0.000000E+00
  7.812500E-01  3.906250E-01  0.000000E+00
  7.812500E-01  7.812500E-01  0.000000E+00
  7.812500E-01  1.171875E+00  0.000000E+00
  7.812500E-01  1.562500E+00  0.000000E+00
  7.812500E-01  1.953125E+00  0.000000E+00
  7.812500E-01  2.343750E+00  0.000000E+00
  7.812500E-01  2.734375E+00  0.000000E+00
  7.812500E-01  3.125000E+00  0.000000E+00
  7.812500E-01  3.515625E+00  0.000000E+00
  7.812500E-01  3.906250E+00  0.000000E+00
  7.812500E-01  4.296875E+00  0.000000E+00
  7.812500E-01  4.687500E+00  0.000000E+00
  7.812500E-01  5.078125E+00  0.000000E+00
  7.812500E-01  5.468750E+00  0.000000E+00
  7.812500E-01  5.859375E+00  0.000000E+00
  7.812500E-01  6.250000E+00  0.000000E+00
  7.812500E-01  6.640625E+00  0.000000E+00
  7.812500E-01  7.031250E+00  0.000000E+00
  7.812500E-01  7.421875E+00  0.000000E+00
  7.812500E-01  7.812500E+00  0.000000E+00
  7.812500E-01  8.203125E+00  0.000000E+00
  7.812500E-01  8.593750E+00  0.000000E+00
  7.812500E-01  8.984375E+00  0.000000E+00
  7.812500E-01  9.375000E+00  0.000000E+00
  7.812500E-01  9.765625E+00  0.000000E+00
  7.812500E-01  1.015625E+01  0.000000E+00
  7.812500E-01  1.054688E+01  0.000000E+00
  7.812500E-01  1.093750E+01  0.000000E+00
  7.812500E-01  1.132812E+01  0.000000E+00
  7.812500E-01  1.171875E+01  0.000000E+00
  7.812500E-01  1.210938E+01  0.000000E+00
  7.812500E-01  1.250000E+01  0.000000E+00
  7.812500E-01  1.289062E+01  0.000000E+00
  7.812500E-01  1.328125E+01  0.000000E+00
  7.812500E-01  1.367188E+01  0.000000E+00
  7.812500E-01  1.406250E+01  0.000000E+00
  7.812500E-01  1.445312E+01  0.000000E+00
  7.812500E-01  1.484375E+01  0.000000E+00
  7.812500E-01  1.523438E+01  0.000000E+00
  7.812500E-01  1.562500E+01  0.000000E+00
  7.812500E-01  1.601562E+01  0.000000E+00
  7.812500E-01  1.640625E+01  0.000000E+00
  7.812500E-01  1.679688E+01  0.000000E+00
  7.812500E-01  1.718750E+01  0.000000E+00
  7.812500E-01  1.757812E+01  0.000000E+00
  7.812500E-01  1.796875E+01  0.000000E+00
  7.812500E-01  1.835938E+01  0.000000E+00
  7.812500E-01  1.875000E+01  0.000000E+00
  7.812500E-01  1.914062E+01  0.000000E+00
  7.812500E-01  1.953125E+01  0.000000E+00
  7.812500E-01  1.992188E+01  0.000000E+00
  7.812500E-01  2.031250E+01  0.000000E+00
  7.812500E-01  2.070312E+01  0.000000E+00
  7.812500E-01  2.109375E+01  0.000000E+00
  7.812500E-01  2.148438E+01  0.000000E+00
  7.812500E-01  2.187500E+01  0.000000E+00
  7.812500E-01  2.226562E+01  0.000000E+00
  7.812500E-01  2.265625E+01  0.000000E+00
  7.812500E-01  2.304688E+01  0.000000E+00
  7.812500E-01  2.343750E+01  0.000000E+00
  7.812500E-01  2.382812E+01  0.000000E+00
  7.812500E-01  2.421875E+01  0.000000E+00
  7.812500E-01  2.460938E+01  0.000000E+00
  1.171875E+00  0.000000E+00  0.000000E+00
  1.171875E+00  3.906250E-01  0.000000E+00
  1.171875E+00  7.812500E-01  0.000000E+00
  1.171875E+00  1.171875E+00  0.000000E+00
  1.171875E+00  1.562500E+00  0.000000E+00
  1.171875E+00  1.953125E+00  0.000000E+00
  1.171875E+00  2.343750E+00  0.000000E+00
  1.171875E+00  2.734375E+00  0.000000E+00
  1.171875E+00  3.125000E+00  0.000000E+00
  1.171875E+00  3.515625E+00  0.000000E+00
  1.171875E+00  3.906250E+00  0.000000E+00
  1.171875E+00  4.296875E+00  0.000000E+00
  1.171875E+00  4.687500E+00  0.000000E+00
  1.171875E+00  5.078125E+00  0.000000E+00
  1.171875E+00  5.468750E+00  0.000000E+00
  1.171875E+00  5.859375E+00  0.000000E+00
  1.171875E+00  6.250000E+00  0.000000E+00
  1.171875E+00  6.640625E+00  0.000000E+00
  1.171875E+00  7.031250E+00  0.000000E+00
  1.171875E+00  7.421875E+00  0.000000E+00
  1.171875E+00  7.812500E+00  0.000000E+00
  1.171875E+00  8.203125E+00  0.000000E+00
  1.171875E+00  8.593750E+00  0.000000E+00
  1.171875E+00  8.984375E+00  0.000000E+00
  1.171875E+00  9.375000E+00  0.000000E+00
  1.171875E+00  9.765625E+00  0.000000E+00
  1.171875E+00  1.015625E+01  0.000000E+00
  1.171875E+00  1.054688E+01  0.000000E+00
  1.171875E+00  1.093750E+01  0.000000E+00
  1.171875E+00  1.132812E+01  0.000000E+00
  1.171875E+00  1.171875E+01  0.000000E+00
  1.171875E+00  1.210938E+01  0.000000E+00
  1.171875E+00  1.250000E+01  0.000000E+00
  1.171875E+00  1.289062E+01  0.000000E+00
  1.171875E+00  1.328125E+01  0.000000E+00
  1.171875E+00  1.367188E+01  0.000000E+00
  1.171875E+00  1.406250E+01  0.000000E+00
  1.171875E+00  1.445312E+01  0.000000E+00
[...]
POINT_DATA   4096
SCALARS CON  float  1
LOOKUP_TABLE default
  4.707164E-01
  4.695553E-01
  4.751061E-01
  4.734464E-01
  4.737222E-01
  4.671444E-01
  4.682655E-01
  4.675563E-01
  4.733553E-01
  4.715220E-01
  4.722174E-01
  4.667288E-01
  4.679608E-01
  4.652137E-01
  4.683694E-01
  4.665290E-01
  4.710128E-01
  4.705575E-01
  4.742849E-01
  4.701881E-01
  4.699322E-01
  4.645374E-01
  4.657875E-01
  4.624541E-01
  4.643778E-01
  4.606446E-01
  4.631570E-01
  4.626899E-01
  4.699394E-01
  4.714054E-01
  4.745775E-01
  4.683919E-01
  4.674198E-01
  4.645885E-01
  4.704055E-01
  4.703561E-01
  4.723347E-01
  4.662151E-01
  4.657228E-01
  4.619104E-01
  4.650143E-01
  4.627012E-01
  4.650232E-01
  4.616218E-01
  4.638364E-01
  4.612289E-01
  4.652898E-01
  4.662283E-01
  4.741412E-01
  4.749177E-01
  4.762304E-01
  4.678552E-01
  4.648782E-01
  4.604384E-01
  4.663138E-01
  4.701399E-01
  4.794417E-01
  4.798680E-01
  4.810643E-01
  4.743081E-01
  4.738963E-01
  4.701576E-01
  4.724115E-01
  4.686121E-01
  4.705034E-01
  4.707663E-01
  4.784327E-01
  4.793231E-01
  4.789170E-01
  4.695476E-01
  4.664577E-01
  4.638733E-01
  4.693146E-01
  4.692233E-01
  4.714028E-01
  4.682634E-01
  4.707623E-01
  4.685124E-01
  4.694130E-01
  4.651281E-01
  4.677844E-01
  4.688402E-01
  4.749739E-01
  4.732211E-01
  4.722916E-01
  4.653926E-01
  4.650404E-01
  4.628241E-01
  4.666003E-01
  4.650342E-01
  4.670591E-01
  4.647257E-01
  4.687507E-01
  4.691113E-01
  4.728839E-01
  4.693645E-01
  4.693018E-01
  4.656574E-01
  4.683486E-01
  4.664628E-01
  4.680583E-01
  4.644261E-01
  4.664451E-01
  4.647519E-01
  4.669678E-01
  4.625776E-01
  4.620220E-01
  4.579778E-01
  4.603408E-01
  4.590421E-01
  4.634989E-01
  4.657401E-01
  4.747761E-01
  4.772717E-01
  4.784225E-01
  4.695003E-01
  4.656357E-01
  4.626785E-01
  4.704415E-01
  4.758564E-01
  4.834971E-01
  4.810569E-01
  4.788317E-01
  4.711379E-01
  4.709293E-01
  4.689952E-01
  4.719931E-01
  4.687762E-01
  4.635643E-01
  4.699249E-01
  4.789252E-01
  4.813394E-01
  4.788014E-01
  4.704918E-01
  4.662444E-01
  4.647770E-01
  4.683900E-01
  4.697800E-01
  4.716015E-01
  4.705742E-01
  4.715981E-01
  4.702793E-01
  4.702027E-01
  4.680686E-01
  4.693406E-01
  4.702279E-01
  4.732540E-01
  4.724976E-01
  4.716666E-01
  4.679477E-01
  4.668949E-01
  4.650806E-01
  4.661275E-01
  4.651173E-01
  4.656487E-01
  4.641688E-01
  4.654366E-01
  4.651090E-01
  4.659843E-01
  4.636104E-01
  4.636226E-01
  4.639582E-01
  4.683543E-01
  4.699967E-01
  4.706262E-01
  4.668811E-01
  4.654751E-01
  4.637751E-01
  4.646327E-01
  4.621028E-01
  4.601347E-01
  4.565510E-01
  4.571337E-01
  4.581927E-01
  4.633064E-01
  4.680830E-01
  4.753101E-01
  4.779044E-01
  4.773056E-01
  4.705428E-01
  4.662343E-01
  4.642924E-01
  4.693182E-01
  4.748816E-01
  4.813942E-01
  4.815659E-01
  4.785382E-01
  4.703789E-01
  4.647269E-01
  4.596307E-01
  4.590511E-01
  4.587077E-01
  4.628506E-01
  4.706783E-01
  4.775918E-01
  4.820105E-01
  4.768123E-01
  4.690644E-01
  4.612872E-01
  4.610751E-01
  4.631800E-01
  4.679950E-01
  4.697930E-01
  4.728340E-01
  4.733074E-01
  4.740181E-01
  4.704774E-01
  4.684082E-01
  4.666566E-01
  4.699004E-01
  4.720477E-01
  4.742004E-01
  4.717038E-01
  4.701603E-01
  4.676880E-01
  4.688933E-01
  4.689768E-01
  4.703403E-01
  4.680378E-01
  4.663807E-01
  4.631735E-01
  4.639720E-01
  4.647984E-01
  4.677953E-01
  4.674488E-01
  4.677149E-01
  4.656740E-01
  4.658086E-01
  4.643094E-01
  4.656107E-01
  4.662774E-01
  4.691279E-01
  4.678430E-01
  4.655059E-01
  4.606150E-01
  4.603921E-01
  4.614547E-01
  4.652743E-01
  4.660865E-01
  4.687448E-01
  4.706221E-01
  4.741354E-01
  4.723627E-01
  4.691690E-01
  4.645587E-01
  4.663856E-01
  4.708012E-01
  4.781539E-01
  4.804123E-01
  4.796601E-01
  4.730330E-01
  4.674629E-01
  4.617552E-01
  4.605412E-01
  4.589781E-01
  4.605854E-01
  4.603337E-01
  4.707842E-01
  4.744848E-01
  4.784289E-01
  4.706478E-01
  4.663358E-01
  4.588971E-01
  4.612320E-01
  4.609633E-01
  4.673316E-01
  4.678776E-01
  4.730617E-01
  4.709458E-01
  4.727025E-01
  4.679758E-01
  4.695147E-01
  4.669197E-01
  4.709856E-01
  4.693423E-01
  4.726159E-01
  4.697174E-01
  4.721565E-01
  4.683745E-01
  4.694939E-01
  4.649163E-01
  4.666249E-01
  4.631731E-01
  4.650112E-01
  4.610413E-01
  4.636054E-01
  4.620526E-01
  4.665514E-01
  4.645636E-01
  4.674507E-01
  4.649731E-01
  4.684429E-01
  4.657726E-01
  4.680783E-01
  4.650661E-01
  4.681975E-01
  4.649371E-01
  4.656811E-01
  4.607593E-01
  4.640287E-01
  4.647533E-01
  4.713915E-01
  4.697241E-01
  4.711773E-01
  4.668390E-01
  4.691014E-01
  4.656910E-01
  4.669841E-01
  4.627628E-01
  4.659101E-01
  4.656204E-01
  4.720133E-01
  4.721792E-01
  4.759500E-01
  4.712772E-01
  4.698796E-01
  4.619029E-01
  4.601652E-01
  4.548218E-01
  4.583251E-01
  4.653201E-01
  4.718339E-01
  4.720609E-01
  4.756139E-01
  4.679504E-01
  4.645463E-01
  4.563005E-01
  4.583134E-01
  4.571405E-01
  4.640657E-01
  4.647903E-01
  4.713048E-01
  4.694052E-01
  4.715359E-01
  4.655881E-01
  4.669769E-01
  4.645532E-01
  4.709633E-01
  4.708910E-01
  4.754166E-01
  4.712629E-01
  4.725395E-01
  4.669028E-01
  4.677700E-01
  4.627585E-01
  4.655127E-01
  4.625529E-01
  4.656572E-01
  4.618909E-01
  4.661463E-01
  4.664937E-01
  4.737565E-01
  4.712018E-01
  4.710838E-01
  4.632845E-01
  4.641913E-01
  4.616558E-01
  4.675757E-01
  4.674016E-01
  4.723531E-01
  4.676941E-01
  4.671840E-01
  4.616394E-01
  4.676182E-01
  4.709256E-01
  4.789583E-01
  4.743208E-01
  4.718570E-01
  4.635978E-01
  4.652301E-01
  4.621926E-01
  4.651919E-01
  4.613838E-01
  4.654132E-01
  4.645438E-01
  4.701019E-01
  4.674844E-01
  4.699427E-01
  4.657729E-01
  4.689443E-01
  4.661247E-01
  4.693903E-01
  4.652506E-01
  4.676528E-01
  4.649122E-01
  4.698256E-01
  4.694057E-01
  4.714262E-01
  4.662440E-01
  4.654522E-01
  4.608640E-01
  4.624518E-01
  4.604510E-01
  4.646406E-01
  4.648625E-01
  4.692652E-01
  4.667627E-01
  4.676037E-01
  4.641109E-01
  4.676260E-01
  4.682215E-01
  4.739277E-01
  4.733495E-01
  4.758713E-01
  4.723196E-01
  4.727451E-01
  4.668230E-01
  4.643773E-01
  4.576528E-01
  4.587640E-01
  4.582882E-01
  4.636535E-01
  4.633357E-01
  4.675929E-01
  4.678565E-01
  4.728238E-01
  4.704819E-01
  4.706132E-01
  4.661905E-01
  4.689457E-01
  4.682527E-01
  4.718085E-01
  4.691585E-01
  4.703762E-01
  4.657938E-01
  4.656192E-01
  4.621774E-01
  4.674356E-01
  4.710756E-01
  4.785357E-01
  4.758649E-01
  4.732892E-01
  4.653158E-01
  4.651072E-01
  4.627328E-01
  4.656146E-01
  4.627332E-01
  4.642109E-01
  4.611815E-01
  4.636252E-01
  4.618835E-01
  4.658058E-01
  4.655940E-01
  4.701913E-01
  4.686755E-01
  4.701404E-01
  4.655797E-01
  4.665881E-01
  4.668861E-01
  4.673247E-01
  4.674425E-01
  4.701625E-01
  4.690608E-01
  4.686377E-01
  4.653568E-01
  4.650447E-01
  4.636165E-01
  4.657933E-01
  4.664824E-01
  4.692540E-01
  4.682781E-01
  4.681364E-01
  4.655701E-01
  4.672014E-01
  4.692460E-01
  4.751101E-01
  4.774011E-01
  4.788011E-01
  4.748108E-01
  4.717875E-01
  4.663202E-01
  4.636625E-01
  4.600658E-01
  4.612834E-01
  4.624035E-01
  4.661035E-01
  4.665396E-01
  4.696776E-01
  4.723582E-01
  4.775784E-01
  4.769386E-01
  4.742603E-01
  4.683977E-01
  4.679376E-01
  4.685439E-01
  4.724225E-01
  4.727243E-01
  4.733047E-01
  4.694357E-01
  4.669773E-01
  4.640651E-01
  4.676200E-01
  4.716934E-01
  4.764429E-01
  4.739570E-01
  4.705433E-01
  4.658265E-01
  4.665612E-01
  4.663663E-01
  4.674043E-01
  4.650179E-01
  4.657479E-01
  4.656035E-01
  4.676202E-01
  4.655084E-01
  4.646731E-01
  4.629283E-01
  4.663619E-01
  4.691450E-01
  4.732148E-01
  4.720050E-01
  4.706877E-01
  4.617186E-01
  4.631505E-01
  4.650359E-01
  4.681286E-01
  4.698266E-01
  4.718143E-01
  4.719422E-01
  4.718996E-01
  4.703861E-01
  4.704266E-01
  4.703615E-01
  4.709018E-01
  4.691666E-01
  4.678357E-01
  4.669045E-01
  4.692490E-01
  4.722008E-01
  4.758259E-01
  4.766328E-01
  4.760859E-01
  4.730755E-01
  4.705330E-01
  4.668531E-01
  4.640072E-01
  4.611971E-01
  4.618817E-01
  4.641602E-01
  4.676724E-01
  4.685360E-01
  4.692197E-01
  4.696684E-01
  4.718428E-01
  4.721867E-01
  4.721873E-01
  4.717361E-01
  4.738980E-01
  4.752168E-01
  4.751755E-01
  4.716881E-01
  4.686565E-01
  4.658952E-01
  4.654764E-01
  4.651235E-01
  4.666002E-01
  4.676769E-01
  4.691549E-01
  4.682916E-01
  4.676797E-01
  4.670912E-01
  4.689282E-01
  4.698585E-01
  4.701104E-01
  4.680408E-01
  4.673671E-01
  4.673187E-01
  4.688960E-01
  4.685411E-01
  4.677562E-01
  4.658934E-01
  4.660572E-01
  4.660913E-01
  4.665062E-01
  4.646244E-01
  4.631236E-01
  4.619993E-01
  4.616380E-01
  4.639092E-01
  4.682396E-01
  4.712724E-01
  4.727789E-01
  4.722247E-01
  4.716562E-01
  4.709059E-01
  4.713204E-01
  4.717804E-01
  4.725079E-01
  4.716370E-01
  4.700196E-01
  4.677073E-01
  4.672667E-01
  4.687238E-01
  4.723844E-01
  4.749679E-01
  4.751956E-01
  4.719539E-01
  4.682885E-01
  4.654318E-01
  4.651348E-01
  4.661909E-01
  4.690573E-01
  4.715947E-01
  4.728985E-01
  4.712575E-01
  4.695353E-01
  4.693350E-01
  4.715633E-01
  4.726161E-01
  4.719227E-01
  4.700705E-01
  4.702567E-01
  4.712794E-01
  4.719984E-01
  4.703167E-01
  4.681165E-01
  4.659275E-01
  4.655607E-01
  4.660933E-01
  4.677095E-01
  4.679572E-01
  4.668234E-01
  4.643102E-01
  4.639128E-01
  4.661749E-01
  4.705188E-01
  4.725495E-01
  4.716234E-01
  4.689625E-01
  4.691781E-01
  4.721689E-01
  4.757960E-01
  4.752504E-01
  4.711434E-01
  4.659227E-01
  4.641224E-01
  4.651866E-01
  4.675062E-01
  4.673067E-01
  4.650941E-01
  4.592446E-01
  4.608772E-01
  4.632454E-01
  4.668535E-01
  4.692641E-01
  4.717325E-01
  4.722969E-01
  4.724756E-01
  4.713137E-01
  4.715754E-01
  4.717934E-01
  4.723523E-01
  4.704907E-01
  4.684178E-01
  4.662296E-01
  4.666965E-01
  4.679899E-01
  4.706859E-01
  4.718692E-01
  4.721709E-01
  4.698605E-01
  4.675282E-01
  4.647848E-01
  4.641769E-01
  4.647314E-01
  4.682121E-01
  4.717144E-01
  4.742582E-01
  4.724175E-01
  4.689134E-01
  4.650193E-01
  4.641766E-01
  4.644265E-01
  4.665273E-01
  4.686797E-01
  4.720219E-01
  4.730414E-01
  4.715077E-01
  4.663286E-01
  4.621526E-01
  4.602318E-01
  4.625510E-01
  4.653402E-01
  4.675456E-01
  4.664602E-01
  4.648719E-01
  4.634061E-01
  4.652535E-01
  4.684535E-01
  4.724555E-01
  4.731416E-01
  4.715574E-01
  4.681153E-01
  4.673944E-01
  4.689374E-01
  4.727181E-01
  4.742128E-01
  4.736724E-01
  4.705604E-01
  4.684401E-01
  4.663189E-01
  4.650440E-01
  4.623482E-01
  4.605048E-01
  4.627506E-01
  4.629363E-01
  4.640078E-01
  4.678814E-01
  4.693176E-01
  4.705267E-01
  4.685938E-01
  4.679628E-01
  4.664558E-01
  4.678934E-01
  4.686843E-01
  4.708921E-01
  4.698669E-01
  4.685725E-01
  4.649493E-01
  4.642786E-01
  4.647239E-01
  4.692532E-01
  4.723939E-01
  4.746626E-01
  4.716361E-01
  4.681385E-01
  4.637332E-01
  4.637029E-01
  4.651088E-01
  4.701727E-01
  4.735634E-01
  4.761215E-01
  4.734823E-01
  4.705845E-01
  4.670490E-01
  4.673093E-01
  4.667234E-01
  4.670321E-01
  4.653703E-01
  4.663429E-01
  4.666266E-01
  4.679055E-01
  4.658081E-01
  4.643452E-01
  4.620379E-01
  4.634268E-01
  4.650538E-01
  4.685282E-01
  4.686665E-01
  4.683748E-01
  4.661440E-01
  4.675170E-01
  4.694976E-01
  4.729686E-01
  4.717993E-01
  4.690995E-01
  4.646173E-01
  4.650264E-01
  4.675710E-01
  4.727050E-01
  4.738135E-01
  4.734877E-01
  4.705553E-01
  4.705339E-01
  4.702044E-01
  4.711414E-01
  4.686466E-01
  4.663387E-01
  4.612416E-01
  4.640732E-01
  4.644936E-01
  4.676383E-01
  4.678288E-01
  4.703528E-01
  4.688058E-01
  4.686841E-01
  4.655353E-01
  4.666012E-01
  4.663790E-01
  4.687967E-01
  4.666619E-01
  4.661417E-01
  4.635493E-01
  4.657228E-01
  4.666288E-01
  4.707948E-01
  4.716845E-01
  4.742074E-01
  4.719920E-01
  4.705901E-01
  4.652836E-01
  4.634494E-01
  4.611582E-01
  4.646983E-01
  4.673826E-01
  4.723078E-01
  4.715532E-01
  4.707045E-01
  4.661146E-01
  4.654600E-01
  4.636341E-01
  4.657849E-01
  4.658664E-01
  4.690504E-01
  4.685846E-01
  4.689577E-01
  4.647417E-01
  4.633936E-01
  4.611482E-01
  4.638887E-01
  4.646320E-01
  4.674771E-01
  4.664782E-01
  4.681658E-01
  4.678021E-01
  4.709244E-01
  4.707762E-01
  4.717671E-01
  4.679131E-01
  4.658981E-01
  4.618130E-01
  4.625295E-01
  4.625717E-01
  4.668127E-01
  4.686226E-01
  4.728327E-01
  4.731491E-01
  4.745976E-01
  4.710944E-01
  4.687716E-01
  4.635242E-01
  4.626893E-01
  4.650829E-01
  4.662545E-01
  4.656970E-01
  4.686294E-01
  4.688375E-01
  4.703894E-01
  4.675694E-01
  4.664969E-01
  4.633220E-01
  4.643386E-01
  4.641569E-01
  4.668763E-01
  4.659522E-01
  4.664855E-01
  4.642163E-01
  4.656399E-01
  4.659504E-01
  4.700699E-01
  4.718022E-01
  4.751468E-01
  4.735733E-01
  4.722290E-01
  4.670651E-01
  4.652120E-01
  4.626205E-01
  4.647666E-01
  4.656883E-01
  4.693150E-01
  4.691336E-01
  4.704260E-01
  4.689759E-01
  4.706623E-01
  4.693292E-01
  4.692197E-01
  4.655160E-01
  4.651597E-01
  4.638590E-01
  4.664246E-01
  4.665142E-01
  4.686675E-01
  4.673111E-01
  4.679365E-01
  4.659918E-01
  4.674764E-01
  4.670379E-01
  4.692149E-01
  4.681951E-01
  4.693723E-01
  4.675400E-01
  4.675794E-01
  4.639744E-01
  4.629591E-01
  4.609732E-01
  4.640679E-01
  4.658830E-01
  4.697379E-01
  4.693939E-01
  4.707678E-01
  4.695344E-01
  4.710582E-01
  4.694096E-01
  4.696500E-01
  4.669490E-01
  4.671271E-01
  4.657510E-01
  4.673564E-01
  4.666777E-01
  4.667587E-01
  4.673752E-01
  4.694428E-01
  4.697931E-01
  4.690256E-01
  4.665974E-01
  4.655929E-01
  4.649761E-01
  4.652380E-01
  4.642583E-01
  4.644205E-01
  4.655139E-01
  4.685553E-01
  4.701277E-01
  4.707207E-01
  4.700995E-01
  4.713505E-01
  4.726009E-01
  4.732094E-01
  4.702701E-01
  4.660450E-01
  4.613119E-01
  4.595752E-01
  4.600726E-01
  4.632666E-01
  4.655596E-01
  4.667948E-01
  4.657418E-01
  4.654437E-01
  4.655171E-01
  4.671914E-01
  4.680962E-01
  4.689777E-01
  4.680895E-01
  4.672490E-01
  4.659533E-01
  4.665100E-01
  4.671498E-01
  4.680627E-01
  4.669760E-01
  4.660614E-01
  4.652434E-01
  4.664074E-01
  4.670374E-01
  4.672594E-01
  4.652763E-01
  4.634466E-01
  4.616855E-01
  4.624667E-01
  4.642092E-01
  4.670475E-01
  4.680130E-01
  4.683245E-01
  4.676141E-01
  4.682369E-01
  4.681060E-01
  4.673278E-01
  4.642170E-01
  4.619396E-01
  4.611037E-01
  4.634766E-01
  4.736039E-01
  4.709230E-01
  4.687681E-01
  4.664271E-01
  4.675068E-01
  4.674950E-01
  4.683970E-01
  4.669855E-01
  4.670080E-01
  4.655949E-01
  4.658701E-01
  4.645638E-01
  4.651239E-01
  4.649727E-01
  4.675894E-01
  4.690635E-01
  4.712579E-01
  4.705809E-01
  4.713421E-01
  4.714139E-01
  4.733893E-01
  4.724139E-01
  4.709269E-01
  4.665485E-01
  4.639005E-01
  4.609380E-01
  4.614323E-01
  4.619333E-01
  4.643829E-01
  4.645259E-01
  4.658424E-01
  4.661787E-01
  4.687037E-01
  4.689227E-01
  4.690431E-01
  4.663907E-01
  4.656030E-01
  4.646488E-01
  4.668978E-01
  4.681922E-01
  4.700888E-01
  4.685949E-01
  4.679807E-01
  4.668538E-01
  4.686111E-01
  4.682909E-01
  4.675480E-01
  4.638071E-01
  4.622069E-01
  4.607595E-01
  4.625255E-01
  4.640109E-01
  4.682945E-01
  4.713228E-01
  4.742652E-01
  4.723157E-01
  4.692429E-01
  4.640461E-01
  4.616785E-01
  4.594573E-01
  4.606928E-01
  4.625929E-01
  4.679254E-01
  4.713867E-01
  4.763605E-01
  4.738863E-01
  4.702373E-01
  4.653437E-01
  4.652498E-01
  4.656682E-01
  4.684589E-01
  4.684509E-01
  4.693611E-01
  4.678086E-01
  4.675434E-01
  4.645694E-01
  4.635603E-01
  4.627497E-01
  4.670241E-01
  4.708260E-01
  4.744407E-01
  4.724814E-01
  4.708803E-01
  4.689910E-01
  4.711427E-01
  4.711614E-01
  4.705116E-01
  4.654154E-01
  4.617170E-01
  4.579508E-01
  4.590896E-01
  4.606302E-01
  4.639039E-01
  4.630207E-01
  4.623418E-01
  4.608940E-01
  4.643906E-01
  4.679900E-01
  4.725616E-01
  4.721927E-01
  4.708469E-01
  4.665622E-01
  4.651690E-01
  4.637579E-01
  4.654926E-01
  4.654361E-01
  4.670582E-01
  4.670929E-01
  4.693376E-01
  4.687564E-01
  4.679895E-01
  4.638460E-01
  4.622040E-01
  4.609615E-01
  4.640533E-01
  4.667356E-01
  4.713478E-01
  4.723913E-01
  4.724191E-01
  4.680086E-01
  4.649876E-01
  4.612908E-01
  4.606637E-01
  4.585072E-01
  4.590175E-01
  4.601861E-01
  4.665170E-01
  4.719628E-01
  4.810149E-01
  4.765274E-01
  4.713252E-01
  4.668594E-01
  4.655787E-01
  4.645920E-01
  4.648737E-01
  4.647852E-01
  4.661383E-01
  4.664367E-01
  4.665643E-01
  4.646706E-01
  4.635376E-01
  4.628618E-01
  4.651461E-01
  4.677559E-01
  4.704914E-01
  4.703511E-01
  4.698135E-01
  4.686291E-01
  4.690755E-01
  4.685924E-01
  4.681055E-01
  4.658132E-01
  4.641877E-01
  4.624803E-01
  4.632488E-01
  4.643893E-01
  4.660519E-01
  4.653421E-01
  4.651759E-01
  4.660290E-01
  4.699548E-01
  4.726777E-01
  4.733203E-01
  4.701007E-01
  4.671599E-01
  4.649357E-01
  4.655460E-01
  4.659058E-01
  4.663866E-01
  4.654211E-01
  4.665261E-01
  4.688943E-01
  4.724216E-01
  4.719674E-01
  4.683113E-01
  4.625632E-01
  4.603474E-01
  4.610686E-01
  4.647519E-01
  4.675818E-01
  4.706127E-01
  4.718016E-01
  4.720260E-01
  4.688532E-01
  4.650554E-01
  4.609239E-01
  4.595629E-01
  4.594149E-01
  4.624350E-01
  4.672611E-01
  4.746939E-01
  4.797725E-01
  4.761797E-01
  4.740154E-01
  4.704399E-01
  4.661418E-01
  4.647733E-01
  4.641451E-01
  4.650349E-01
  4.647480E-01
  4.653639E-01
  4.651337E-01
  4.655173E-01
  4.638276E-01
  4.624293E-01
  4.611567E-01
  4.633458E-01
  4.660539E-01
  4.684486E-01
  4.668825E-01
  4.646661E-01
  4.627306E-01
  4.644208E-01
  4.664770E-01
  4.683796E-01
  4.668623E-01
  4.648203E-01
  4.625814E-01
  4.638084E-01
  4.659498E-01
  4.683430E-01
  4.671009E-01
  4.654822E-01
  4.647990E-01
  4.684251E-01
  4.722026E-01
  4.747151E-01
  4.727707E-01
  4.698195E-01
  4.660049E-01
  4.643567E-01
  4.629126E-01
  4.633392E-01
  4.636782E-01
  4.660790E-01
  4.682147E-01
  4.705831E-01
  4.694594E-01
  4.666240E-01
  4.621056E-01
  4.604045E-01
  4.605790E-01
  4.636988E-01
  4.662201E-01
  4.687694E-01
  4.685068E-01
  4.673252E-01
  4.645496E-01
  4.641857E-01
  4.650633E-01
  4.676749E-01
  4.680007E-01
  4.679434E-01
  4.676200E-01
  4.706063E-01
  4.737960E-01
  4.737265E-01
  4.697999E-01
  4.695077E-01
  4.663084E-01
  4.672404E-01
  4.641109E-01
  4.642314E-01
  4.609111E-01
  4.621381E-01
  4.606090E-01
  4.633495E-01
  4.625758E-01
  4.652814E-01
  4.639000E-01
  4.658304E-01
  4.636828E-01
  4.646705E-01
  4.614073E-01
  4.619083E-01
  4.599165E-01
  4.634705E-01
  4.647614E-01
  4.696498E-01
  4.692383E-01
  4.707544E-01
  4.681395E-01
  4.702837E-01
  4.696544E-01
  4.720438E-01
  4.693034E-01
  4.704497E-01
  4.699860E-01
  4.744729E-01
  4.733117E-01
  4.721776E-01
  4.655576E-01
  4.642783E-01
  4.624082E-01
  4.659954E-01
  4.654776E-01
  4.673166E-01
  4.651145E-01
  4.678864E-01
  4.683833E-01
  4.718763E-01
  4.685574E-01
  4.660574E-01
  4.599003E-01
  4.601274E-01
  4.594835E-01
  4.635505E-01
  4.636231E-01
  4.670234E-01
  4.666091E-01
  4.695200E-01
  4.682493E-01
  4.708603E-01
  4.706039E-01
  4.743633E-01
  4.734358E-01
  4.749383E-01
  4.724888E-01
  4.744133E-01
  4.727520E-01
  4.664045E-01
  4.648844E-01
  4.685485E-01
  4.652683E-01
  4.680246E-01
  4.649332E-01
  4.675828E-01
  4.631349E-01
  4.641896E-01
  4.599157E-01
  4.633185E-01
  4.618805E-01
  4.668314E-01
  4.654981E-01
  4.697963E-01
  4.667747E-01
  4.677857E-01
  4.609816E-01
  4.606274E-01
  4.571011E-01
  4.633142E-01
  4.653061E-01
  4.720391E-01
  4.693804E-01
  4.705561E-01
  4.661382E-01
  4.701109E-01
  4.692769E-01
  4.732297E-01
  4.685868E-01
  4.693865E-01
  4.659660E-01
  4.706046E-01
  4.687431E-01
  4.709100E-01
  4.656768E-01
  4.669697E-01
  4.631165E-01
  4.657008E-01
  4.624008E-01
  4.660158E-01
  4.647333E-01
  4.700246E-01
  4.683730E-01
  4.710910E-01
  4.661059E-01
  4.667073E-01
  4.618586E-01
  4.641799E-01