# vtk DataFile Version 2.0
title
ASCII
DATASET STRUCTURED_GRID
DIMENSIONS   64   64    1
POINTS   4096  float
  0.000000E+00  0.000000E+00  0.000000E+00
  0.000000E+00  3.906250E-01  0.000000E+00
  0.000000E+00  7.812500E-01  0.000000E+00
  0.000000E+00  1.171875E+00  0.000000E+00
  0.000000E+00  1.562500E+00  0.000000E+00
  0.000000E+00  1.953125E+00  0.000000E+00
  0.000000E+00  2.343750E+00  0.000000E+00
  0.000000E+00  2.734375E+00  0.000000E+00
  0.000000E+00  3.125000E+00  0.000000E+00
  0.000000E+00  3.515625E+00  0.000000E+00
  0.000000E+00  3.906250E+00  0.000000E+00
  0.000000E+00  4.296875E+00  0.000000E+00
  0.000000E+00  4.687500E+00  0.000000E+00
  0.000000E+00  5.078125E+00  0.000000E+00
  0.000000E+00  5.468750E+00  0.000000E+00
  0.000000E+00  5.859375E+00  0.000000E+00
  0.000000E+00  6.250000E+00  0.000000E+00
  0.000000E+00  6.640625E+00  0.000000E+00
  0.000000E+00  7.031250E+00  0.000000E+00
  0.000000E+00  7.421875E+00  0.000000E+00
  0.000000E+00  7.812500E+00  0.000000E+00
  0.000000E+00  8.203125E+00  0.000000E+00
  0.000000E+00  8.593750E+00  0.000000E+00
  0.000000E+00  8.984375E+00  0.000000E+00
  0.000000E+00  9.375000E+00  0.000000E+00
  0.000000E+00  9.765625E+00  0.000000E+00
  0.000000E+00  1.015625E+01  0.000000E+00
  0.000000E+00  1.054688E+01  0.000000E+00
  0.000000E+00  1.093750E+01  0.000000E+00
  0.000000E+00  1.132812E+01  0.000000E+00
  0.000000E+00  1.171875E+01  0.000000E+00
  0.000000E+00  1.210938E+01  0.000000E+00
  0.000000E+00  1.250000E+01  0.000000E+00
  0.000000E+00  1.289062E+01  0.000000E+00
  0.000000E+00  1.328125E+01  0.000000E+00
  0.000000E+00  1.367188E+01  0.000000E+00
  0.000000E+00  1.406250E+01  0.000000E+00
  0.000000E+00  1.445312E+01  0.000000E+00
  0.000000E+00  1.484375E+01  0.000000E+00
  0.000000E+00  1.523438E+01  0.000000E+00
  0.000000E+00  1.562500E+01  0.000000E+00
  0.000000E+00  1.601562E+01  0.000000E+00
  0.000000E+00  1.640625E+01  0.000000E+00
  0.000000E+00  1.679688E+01  0.000000E+00
  0.000000E+00  1.718750E+01  0.000000E+00
  0.000000E+00  1.757812E+01  0.000000E+00
  0.000000E+00  1.796875E+01  0.000000E+00
  0.000000E+00  1.835938E+01  0.000000E+00
  0.000000E+00  1.875000E+01  0.000000E+00
  0.000000E+00  1.914062E+01  0.000000E+00
  0.000000E+00  1.953125E+01  0.000000E+00
  0.000000E+00  1.992188E+01  0.000000E+00
  0.000000E+00  2.031250E+01  0.000000E+00
  0.000000E+00  2.070312E+01  0.000000E+00
  0.000000E+00  2.109375E+01  0.000000E+00
  0.000000E+00  2.148438E+01  0.000000E+00
  0.000000E+00  2.187500E+01  0.000000E+00
  0.000000E+00  2.226562E+01  0.000000E+00
  0.000000E+00  2.265625E+01  0.000000E+00
  0.000000E+00  2.304688E+01  0.000000E+00
  0.000000E+00  2.343750E+01  0.000000E+00
  0.000000E+00  2.382812E+01  0.000000E+00
  0.000000E+00  2.421875E+01  0.000000E+00
  0.000000E+00  2.460938E+01  0.000000E+00
  3.906250E-01  0.000000E+00  0.000000E+00
  3.906250E-01  3.906250E-01  0.000000E+00
  3.906250E-01  7.812500E-01  0.000000E+00
  3.906250E-01  1.171875E+00  0.000000E+00
  3.906250E-01  1.562500E+00  0.000000E+00
  3.906250E-01  1.953125E+00  0.000000E+00
  3.906250E-01  2.343750E+00  0.000000E+00
  3.906250E-01  2.734375E+00  0.000000E+00
  3.906250E-01  3.125000E+00  0.000000E+00
  3.906250E-01  3.515625E+00  0.000000E+00
  3.906250E-01  3.906250E+00  0.000000E+00
  3.906250E-01  4.296875E+00  0.000000E+00
  3.906250E-01  4.687500E+00  0.000000E+00
  3.906250E-01  5.078125E+00  0.000000E+00
  3.906250E-01  5.468750E+00  0.000000E+00
  3.906250E-01  5.859375E+00  0.000000E+00
  3.906250E-01  6.250000E+00  0.000000E+00
  3.906250E-01  6.640625E+00  0.000000E+00
  3.906250E-01  7.031250E+00  0.000000E+00
  3.906250E-01  7.421875E+00  0.000000E+00
  3.906250E-01  7.812500E+00  0.000000E+00
  3.906250E-01  8.203125E+00  0.000000E+00
  3.906250E-01  8.593750E+00  0.000000E+00
  3.906250E-01  8.984375E+00  0.000000E+00
  3.906250E-01  9.375000E+00  0.000000E+00
  3.906250E-01  9.765625E+00  0.000000E+00
  3.906250E-01  1.015625E+01  0.000000E+00
  3.906250E-01  1.054688E+01  0.000000E+00
  3.906250E-01  1.093750E+01  0.000000E+00
  3.906250E-01  1.132812E+01  0.000000E+00
  3.906250E-01  1.171875E+01  0.000000E+00
  3.906250E-01  1.210938E+01  0.000000E+00
  3.906250E-01  1.250000E+01  0.000000E+00
  3.906250E-01  1.289062E+01  0.000000E+00
  3.906250E-01  1.328125E+01  0.000000E+00
  3.906250E-01  1.367188E+01  0.000000E+00
  3.906250E-01  1.406250E+01  0.000000E+00
  3.906250E-01  1.445312E+01  0.000000E+00
  3.906250E-01  1.484375E+01  0.000000E+00
  3.906250E-01  1.523438E+01  0.000000E+00
  3.906250E-01  1.562500E+01  0.000000E+00
  3.906250E-01  1.601562E+01  0.000000E+00
  3.906250E-01  1.640625E+01  0.000000E+00
  3.906250E-01  1.679688E+01  0.000000E+00
  3.906250E-01  1.718750E+01  0.000000E+00
  3.906250E-01  1.757812E+01  0.000000E+00
  3.906250E-01  1.796875E+01  0.000000E+00
  3.906250E-01  1.835938E+01  0.000000E+00
  3.906250E-01  1.875000E+01  0.000000E+00
  3.906250E-01  1.914062E+01  0.000000E+00
  3.906250E-01  1.953125E+01  0.000000E+00
  3.906250E-01  1.992188E+01  0.000000E+00
  3.906250E-01  2.031250E+01  0.000000E+00
  3.906250E-01  2.070312E+01  0.000000E+00
  3.906250E-01  2.109375E+01  0.000000E+00
  3.906250E-01  2.148438E+01  0.000000E+00
  3.906250E-01  2.187500E+01  0.000000E+00
  3.906250E-01  2.226562E+01  0.000000E+00
  3.906250E-01  2.265625E+01  0.000000E+00
  3.906250E-01  2.304688E+01  0.000000E+00
  3.906250E-01  2.343750E+01  0.000000E+00
  3.906250E-01  2.382812E+01  0.000000E+00
  3.906250E-01  2.421875E+01  0.000000E+00
  3.906250E-01  2.460938E+01  0.000000E+00
  7.812500E-01  0.000000E+00  0.000000E+00
  7.812500E-01  3.906250E-01  0.000000E+00
  7.812500E-01  7.812500E-01  0.000000E+00
  7.812500E-01  1.171875E+00  0.000000E+00
  7.812500E-01  1.562500E+00  0.000000E+00
  7.812500E-01  1.953125E+00  0.000000E+00
  7.812500E-01  2.343750E+00  0.000000E+00
  7.812500E-01  2.734375E+00  0.000000E+00
  7.812500E-01  3.125000E+00  0.000000E+00
  7.812500E-01  3.515625E+00  0.000000E+00
  7.812500E-01  3.906250E+00  0.000000E+00
  7.812500E-01  4.296875E+00  0.000000E+00
  7.812500E-01  4.687500E+00  0.000000E+00
  7.812500E-01  5.078125E+00  0.000000E+00
  7.812500E-01  5.468750E+00  0.000000E+00
  7.812500E-01  5.859375E+00  0.000000E+00
  7.812500E-01  6.250000E+00  0.000000E+00
  7.812500E-01  6.640625E+00  0.000000E+00
  7.812500E-01  7.031250E+00  0.000000E+00
  7.812500E-01  7.421875E+00  0.000000E+00
  7.812500E-01  7.812500E+00  0.000000E+00
  7.812500E-01  8.203125E+00  0.000000E+00
  7.812500E-01  8.593750E+00  0.000000E+00
  7.812500E-01  8.984375E+00  0.000000E+00
  7.812500E-01  9.375000E+00  0.000000E+00
  7.812500E-01  9.765625E+00  0.000000E+00
  7.812500E-01  1.015625E+01  0.000000E+00
  7.812500E-01  1.054688E+01  0.000000E+00
  7.812500E-01  1.093750E+01  0.000000E+00
  7.812500E-01  1.132812E+01  0.000000E+00
  7.812500E-01  1.171875E+01  0.000000E+00
  7.812500E-01  1.210938E+01  0.000000E+00
  7.812500E-01  1.250000E+01  0.000000E+00
  7.812500E-01  1.289062E+01  0.000000E+00
  7.812500E-01  1.328125E+01  0.000000E+00
  7.812500E-01  1.367188E+01  0.000000E+00
  7.812500E-01  1.406250E+01  0.000000E+00
  7.812500E-01  1.445312E+01  0.000000E+00
  7.812500E-01  1.484375E+01  0.000000E+00
  7.812500E-01  1.523438E+01  0.000000E+00
  7.812500E-01  1.562500E+01  0.000000E+00
  7.812500E-01  1.601562E+01  0.000000E+00
  7.812500E-01  1.640625E+01  0.000000E+00
  7.812500E-01  1.679688E+01  0.000000E+00
  7.812500E-01  1.718750E+01  0.000000E+00
  7.812500E-01  1.757812E+01  0.000000E+00
  7.812500E-01  1.796875E+01  0.000000E+00
  7.812500E-01  1.835938E+01  0.000000E+00
  7.812500E-01  1.875000E+01  0.000000E+00
  7.812500E-01  1.914062E+01  0.000000E+00
  7.812500E-01  1.953125E+01  0.000000E+00
  7.812500E-01  1.992188E+01  0.000000E+00
  7.812500E-01  2.031250E+01  0.000000E+00
  7.812500E-01  2.070312E+01  0.000000E+00
  7.812500E-01  2.109375E+01  0.000000E+00
  7.812500E-01  2.148438E+01  0.000000E+00
  7.812500E-01  2.187500E+01  0.000000E+00
  7.812500E-01  2.226562E+01  0.000000E+00
  7.812500E-01  2.265625E+01  0.000000E+00
  7.812500E-01  2.304688E+01  0.000000E+00
  7.812500E-01  2.343750E+01  0.000000E+00
  7.812500E-01  2.382812E+01  0.000000E+00
  7.812500E-01  2.421875E+01  0.000000E+00
  7.812500E-01  2.460938E+01  0.000000E+00
  1.171875E+00  0.000000E+00  0.000000E+00
  1.171875E+00  3.906250E-01  0.000000E+00
  1.171875E+00  7.812500E-01  0.000000E+00
  1.171875E+00  1.171875E+00  0.000000E+00
  1.171875E+00  1.562500E+00  0.000000E+00
  1.171875E+00  1.953125E+00  0.000000E+00
  1.171875E+00  2.343750E+00  0.000000E+00
  1.171875E+00  2.734375E+00  0.000000E+00
  1.171875E+00  3.125000E+00  0.000000E+00
  1.171875E+00  3.515625E+00  0.000000E+00
  1.171875E+00  3.906250E+00  0.000000E+00
  1.171875E+00  4.296875E+00  0.000000E+00
  1.171875E+00  4.687500E+00  0.000000E+00
  1.171875E+00  5.078125E+00  0.000000E+00
  1.171875E+00  5.468750E+00  0.000000E+00
  1.171875E+00  5.859375E+00  0.000000E+00
  1.171875E+00  6.250000E+00  0.000000E+00
  1.171875E+00  6.640625E+00  0.000000E+00
  1.171875E+00  7.031250E+00  0.000000E+00
  1.171875E+00  7.421875E+00  0.000000E+00
  1.171875E+00  7.812500E+00  0.000000E+00
  1.171875E+00  8.203125E+00  0.000000E+00
  1.171875E+00  8.593750E+00  0.000000E+00
  1.171875E+00  8.984375E+00  0.000000E+00
  1.171875E+00  9.375000E+00  0.000000E+00
  1.171875E+00  9.765625E+00  0.000000E+00
  1.171875E+00  1.015625E+01  0.000000E+00
  1.171875E+00  1.054688E+01  0.000000E+00
  1.171875E+00  1.093750E+01  0.000000E+00
  1.171875E+00  1.132812E+01  0.000000E+00
  1.171875E+00  1.171875E+01  0.000000E+00
  1.171875E+00  1.210938E+01  0.000000E+00
  1.171875E+00  1.250000E+01  0.000000E+00
  1.171875E+00  1.289062E+01  0.000000E+00
  1.171875E+00  1.328125E+01  0.000000E+00
  1.171875E+00  1.367188E+01  0.000000E+00
  1.171875E+00  1.406250E+01  0.000000E+00
  1.171875E+00  1.445312E+01  0.000000E+00
[...]
POINT_DATA   4096
SCALARS CON  float  1
LOOKUP_TABLE default
  4.702442E-01
  4.683204E-01
  4.737872E-01
  4.737006E-01
  4.741259E-01
  4.666768E-01
  4.661850E-01
  4.660449E-01
  4.728552E-01
  4.719566E-01
  4.717559E-01
  4.661421E-01
  4.678139E-01
  4.664454E-01
  4.689817E-01
  4.656884E-01
  4.685775E-01
  4.690434E-01
  4.739363E-01
  4.708797E-01
  4.702806E-01
  4.651055E-01
  4.658888E-01
  4.627569E-01
  4.648706E-01
  4.621055E-01
  4.637864E-01
  4.620797E-01
  4.684341E-01
  4.714757E-01
  4.754583E-01
  4.685463E-01
  4.653262E-01
  4.627202E-01
  4.699037E-01
  4.710617E-01
  4.721292E-01
  4.659390E-01
  4.654077E-01
  4.618621E-01
  4.646997E-01
  4.634803E-01
  4.658054E-01
  4.622104E-01
  4.645965E-01
  4.633341E-01
  4.656774E-01
  4.637338E-01
  4.706310E-01
  4.737845E-01
  4.756203E-01
  4.668680E-01
  4.644537E-01
  4.621355E-01
  4.672436E-01
  4.692338E-01
  4.775105E-01
  4.789923E-01
  4.799471E-01
  4.732075E-01
  4.733877E-01
  4.715639E-01
  4.741275E-01
  4.698724E-01
  4.698316E-01
  4.687990E-01
  4.767568E-01
  4.802633E-01
  4.802975E-01
  4.696890E-01
  4.646591E-01
  4.631461E-01
  4.699754E-01
  4.701459E-01
  4.698194E-01
  4.659122E-01
  4.695303E-01
  4.696881E-01
  4.702647E-01
  4.648190E-01
  4.661821E-01
  4.682765E-01
  4.755053E-01
  4.751182E-01
  4.736064E-01
  4.657226E-01
  4.634519E-01
  4.611410E-01
  4.654957E-01
  4.655192E-01
  4.673841E-01
  4.648169E-01
  4.683916E-01
  4.699457E-01
  4.735809E-01
  4.689796E-01
  4.670026E-01
  4.641673E-01
  4.681687E-01
  4.674574E-01
  4.683681E-01
  4.646822E-01
  4.659855E-01
  4.643624E-01
  4.664339E-01
  4.629175E-01
  4.618748E-01
  4.578068E-01
  4.603684E-01
  4.603597E-01
  4.637599E-01
  4.646825E-01
  4.736575E-01
  4.786894E-01
  4.798511E-01
  4.694939E-01
  4.646650E-01
  4.631586E-01
  4.703341E-01
  4.740715E-01
  4.802211E-01
  4.790222E-01
  4.773449E-01
  4.699083E-01
  4.693686E-01
  4.690401E-01
  4.731825E-01
  4.703219E-01
  4.631606E-01
  4.678304E-01
  4.777243E-01
  4.816019E-01
  4.792084E-01
  4.696943E-01
  4.657570E-01
  4.656042E-01
  4.698843E-01
  4.698674E-01
  4.702166E-01
  4.687180E-01
  4.708336E-01
  4.705427E-01
  4.709240E-01
  4.681257E-01
  4.691296E-01
  4.702543E-01
  4.740254E-01
  4.732870E-01
  4.722843E-01
  4.677512E-01
  4.658659E-01
  4.634841E-01
  4.654571E-01
  4.653938E-01
  4.659768E-01
  4.635690E-01
  4.650690E-01
  4.656210E-01
  4.669600E-01
  4.634988E-01
  4.627905E-01
  4.635286E-01
  4.692065E-01
  4.708335E-01
  4.707778E-01
  4.665876E-01
  4.657234E-01
  4.641602E-01
  4.653637E-01
  4.631970E-01
  4.612627E-01
  4.564447E-01
  4.565847E-01
  4.583098E-01
  4.641979E-01
  4.685994E-01
  4.764460E-01
  4.800654E-01
  4.788881E-01
  4.697194E-01
  4.651213E-01
  4.646284E-01
  4.699417E-01
  4.733725E-01
  4.789270E-01
  4.799319E-01
  4.777030E-01
  4.687679E-01
  4.633409E-01
  4.600314E-01
  4.613974E-01
  4.604531E-01
  4.623241E-01
  4.685779E-01
  4.768689E-01
  4.818380E-01
  4.764714E-01
  4.674028E-01
  4.611480E-01
  4.626828E-01
  4.660870E-01
  4.690503E-01
  4.693239E-01
  4.712976E-01
  4.731493E-01
  4.743127E-01
  4.712360E-01
  4.684806E-01
  4.674783E-01
  4.704931E-01
  4.725174E-01
  4.732516E-01
  4.709471E-01
  4.695147E-01
  4.683094E-01
  4.696391E-01
  4.704091E-01
  4.710354E-01
  4.685509E-01
  4.658541E-01
  4.629163E-01
  4.634713E-01
  4.651505E-01
  4.678688E-01
  4.680013E-01
  4.681131E-01
  4.671515E-01
  4.671006E-01
  4.654642E-01
  4.651393E-01
  4.658280E-01
  4.693945E-01
  4.701401E-01
  4.673714E-01
  4.618132E-01
  4.605605E-01
  4.623190E-01
  4.657513E-01
  4.664780E-01
  4.680873E-01
  4.708339E-01
  4.749451E-01
  4.733795E-01
  4.679707E-01
  4.633196E-01
  4.663878E-01
  4.724216E-01
  4.782566E-01
  4.799268E-01
  4.793963E-01
  4.739856E-01
  4.673286E-01
  4.616116E-01
  4.610276E-01
  4.611820E-01
  4.616918E-01
  4.597228E-01
  4.702088E-01
  4.746295E-01
  4.784237E-01
  4.695819E-01
  4.650341E-01
  4.594515E-01
  4.634660E-01
  4.629243E-01
  4.679716E-01
  4.681335E-01
  4.734502E-01
  4.713065E-01
  4.728540E-01
  4.683498E-01
  4.701575E-01
  4.678445E-01
  4.717575E-01
  4.692512E-01
  4.711240E-01
  4.680420E-01
  4.718671E-01
  4.697229E-01
  4.711460E-01
  4.662890E-01
  4.679430E-01
  4.646532E-01
  4.659125E-01
  4.608069E-01
  4.625862E-01
  4.618663E-01
  4.678032E-01
  4.661060E-01
  4.679868E-01
  4.653451E-01
  4.694368E-01
  4.664235E-01
  4.670272E-01
  4.635195E-01
  4.681903E-01
  4.666351E-01
  4.671319E-01
  4.611750E-01
  4.642296E-01
  4.657274E-01
  4.725024E-01
  4.695650E-01
  4.689711E-01
  4.641883E-01
  4.679901E-01
  4.659982E-01
  4.668350E-01
  4.623751E-01
  4.666925E-01
  4.672567E-01
  4.726928E-01
  4.721561E-01
  4.764038E-01
  4.719948E-01
  4.698274E-01
  4.617982E-01
  4.608422E-01
  4.558257E-01
  4.584854E-01
  4.653098E-01
  4.723849E-01
  4.724632E-01
  4.757976E-01
  4.673218E-01
  4.641678E-01
  4.567324E-01
  4.596946E-01
  4.580755E-01
  4.644969E-01
  4.646218E-01
  4.712915E-01
  4.694241E-01
  4.719331E-01
  4.656892E-01
  4.669835E-01
  4.642426E-01
  4.708111E-01
  4.702075E-01
  4.742229E-01
  4.697288E-01
  4.722071E-01
  4.675271E-01
  4.683289E-01
  4.619759E-01
  4.649697E-01
  4.636684E-01
  4.682322E-01
  4.627985E-01
  4.648363E-01
  4.651603E-01
  4.748020E-01
  4.724145E-01
  4.704284E-01
  4.616442E-01
  4.645753E-01
  4.630050E-01
  4.672960E-01
  4.651028E-01
  4.714790E-01
  4.684808E-01
  4.670728E-01
  4.593227E-01
  4.662531E-01
  4.719585E-01
  4.809584E-01
  4.740978E-01
  4.691021E-01
  4.600709E-01
  4.642370E-01
  4.637294E-01
  4.671257E-01
  4.618887E-01
  4.659126E-01
  4.651626E-01
  4.701802E-01
  4.664893E-01
  4.693738E-01
  4.657858E-01
  4.695506E-01
  4.665669E-01
  4.696743E-01
  4.648445E-01
  4.673888E-01
  4.660972E-01
  4.705248E-01
  4.695492E-01
  4.703191E-01
  4.653457E-01
  4.650470E-01
  4.620687E-01
  4.631829E-01
  4.600805E-01
  4.631836E-01
  4.647242E-01
  4.696181E-01
  4.670743E-01
  4.668103E-01
  4.635950E-01
  4.666807E-01
  4.672689E-01
  4.725680E-01
  4.727546E-01
  4.748108E-01
  4.714478E-01
  4.722967E-01
  4.676065E-01
  4.637832E-01
  4.554923E-01
  4.562907E-01
  4.588640E-01
  4.660321E-01
  4.648886E-01
  4.659435E-01
  4.663863E-01
  4.733460E-01
  4.716990E-01
  4.685844E-01
  4.631277E-01
  4.677563E-01
  4.695799E-01
  4.718440E-01
  4.681420E-01
  4.697609E-01
  4.667040E-01
  4.650851E-01
  4.600570E-01
  4.648567E-01
  4.708632E-01
  4.798113E-01
  4.773507E-01
  4.724902E-01
  4.637721E-01
  4.645422E-01
  4.646264E-01
  4.673887E-01
  4.639536E-01
  4.647407E-01
  4.618931E-01
  4.629945E-01
  4.607843E-01
  4.644046E-01
  4.652870E-01
  4.706475E-01
  4.705304E-01
  4.714392E-01
  4.663060E-01
  4.668110E-01
  4.677934E-01
  4.667508E-01
  4.666752E-01
  4.689321E-01
  4.689208E-01
  4.687127E-01
  4.668131E-01
  4.658872E-01
  4.640455E-01
  4.649769E-01
  4.664653E-01
  4.690707E-01
  4.684830E-01
  4.673459E-01
  4.653948E-01
  4.668847E-01
  4.696754E-01
  4.750349E-01
  4.781007E-01
  4.786199E-01
  4.744459E-01
  4.712338E-01
  4.678579E-01
  4.648049E-01
  4.597210E-01
  4.589481E-01
  4.622304E-01
  4.678804E-01
  4.684446E-01
  4.682287E-01
  4.707425E-01
  4.775657E-01
  4.782936E-01
  4.726469E-01
  4.657910E-01
  4.668677E-01
  4.705581E-01
  4.730739E-01
  4.719565E-01
  4.726658E-01
  4.713375E-01
  4.677725E-01
  4.630179E-01
  4.650972E-01
  4.709907E-01
  4.768990E-01
  4.758735E-01
  4.715364E-01
  4.665675E-01
  4.668528E-01
  4.679247E-01
  4.680838E-01
  4.652264E-01
  4.652174E-01
  4.661888E-01
  4.676498E-01
  4.654562E-01
  4.636877E-01
  4.631654E-01
  4.673866E-01
  4.713234E-01
  4.740151E-01
  4.726114E-01
  4.709817E-01
  4.614408E-01
  4.626043E-01
  4.645064E-01
  4.685486E-01
  4.699617E-01
  4.721801E-01
  4.728638E-01
  4.733240E-01
  4.703647E-01
  4.698527E-01
  4.703650E-01
  4.719649E-01
  4.692720E-01
  4.674483E-01
  4.671702E-01
  4.711579E-01
  4.738819E-01
  4.770739E-01
  4.773985E-01
  4.765222E-01
  4.720384E-01
  4.699217E-01
  4.681344E-01
  4.669925E-01
  4.628927E-01
  4.620494E-01
  4.638435E-01
  4.685094E-01
  4.689410E-01
  4.684192E-01
  4.684380E-01
  4.728519E-01
  4.740380E-01
  4.726400E-01
  4.703468E-01
  4.736259E-01
  4.758679E-01
  4.752243E-01
  4.702345E-01
  4.682317E-01
  4.672025E-01
  4.678669E-01
  4.661790E-01
  4.660136E-01
  4.657803E-01
  4.682406E-01
  4.687330E-01
  4.689966E-01
  4.675507E-01
  4.691640E-01
  4.698235E-01
  4.699618E-01
  4.670353E-01
  4.666785E-01
  4.671881E-01
  4.698949E-01
  4.695087E-01
  4.683159E-01
  4.653961E-01
  4.657460E-01
  4.657389E-01
  4.662031E-01
  4.640351E-01
  4.631984E-01
  4.614281E-01
  4.615493E-01
  4.642867E-01
  4.703656E-01
  4.717266E-01
  4.721463E-01
  4.707118E-01
  4.717923E-01
  4.707767E-01
  4.715265E-01
  4.710482E-01
  4.724950E-01
  4.710166E-01
  4.704339E-01
  4.683575E-01
  4.690764E-01
  4.688148E-01
  4.717293E-01
  4.735492E-01
  4.747914E-01
  4.701372E-01
  4.668391E-01
  4.651755E-01
  4.678396E-01
  4.681886E-01
  4.698766E-01
  4.705719E-01
  4.727658E-01
  4.704851E-01
  4.686842E-01
  4.677697E-01
  4.721525E-01
  4.737076E-01
  4.730274E-01
  4.694271E-01
  4.706550E-01
  4.716216E-01
  4.719801E-01
  4.681357E-01
  4.670686E-01
  4.660314E-01
  4.673770E-01
  4.670993E-01
  4.687574E-01
  4.672514E-01
  4.657078E-01
  4.622524E-01
  4.628868E-01
  4.648650E-01
  4.704767E-01
  4.724756E-01
  4.719980E-01
  4.675531E-01
  4.679107E-01
  4.712522E-01
  4.773068E-01
  4.767287E-01
  4.722743E-01
  4.649889E-01
  4.632235E-01
  4.633154E-01
  4.661665E-01
  4.659429E-01
  4.652950E-01
  4.597964E-01
  4.612659E-01
  4.642789E-01
  4.679013E-01
  4.686089E-01
  4.693998E-01
  4.704237E-01
  4.718549E-01
  4.707913E-01
  4.704999E-01
  4.709385E-01
  4.719460E-01
  4.700355E-01
  4.680413E-01
  4.665960E-01
  4.668969E-01
  4.662886E-01
  4.673594E-01
  4.692685E-01
  4.710494E-01
  4.689155E-01
  4.662758E-01
  4.643595E-01
  4.648120E-01
  4.654095E-01
  4.681375E-01
  4.710759E-01
  4.734071E-01
  4.714666E-01
  4.676784E-01
  4.638660E-01
  4.637841E-01
  4.646705E-01
  4.662905E-01
  4.677699E-01
  4.712454E-01
  4.727334E-01
  4.712083E-01
  4.659420E-01
  4.615798E-01
  4.594544E-01
  4.623378E-01
  4.666631E-01
  4.696228E-01
  4.675619E-01
  4.642813E-01
  4.617102E-01
  4.631601E-01
  4.667976E-01
  4.718304E-01
  4.733854E-01
  4.717993E-01
  4.678764E-01
  4.668044E-01
  4.687300E-01
  4.735090E-01
  4.755668E-01
  4.739614E-01
  4.691254E-01
  4.665160E-01
  4.654664E-01
  4.653609E-01
  4.632685E-01
  4.614418E-01
  4.638351E-01
  4.629993E-01
  4.644338E-01
  4.674631E-01
  4.686113E-01
  4.687418E-01
  4.680135E-01
  4.678284E-01
  4.670580E-01
  4.673582E-01
  4.681673E-01
  4.698610E-01
  4.698561E-01
  4.684337E-01
  4.655555E-01
  4.640901E-01
  4.642822E-01
  4.677561E-01
  4.722681E-01
  4.751877E-01
  4.727408E-01
  4.680423E-01
  4.641384E-01
  4.636105E-01
  4.649248E-01
  4.689096E-01
  4.733971E-01
  4.762547E-01
  4.740678E-01
  4.696366E-01
  4.660195E-01
  4.660643E-01
  4.665925E-01
  4.661750E-01
  4.646158E-01
  4.654048E-01
  4.672420E-01
  4.685566E-01
  4.669691E-01
  4.643917E-01
  4.615028E-01
  4.616297E-01
  4.649122E-01
  4.699148E-01
  4.713492E-01
  4.693668E-01
  4.661865E-01
  4.664568E-01
  4.695372E-01
  4.732967E-01
  4.729089E-01
  4.692252E-01
  4.648465E-01
  4.645004E-01
  4.676076E-01
  4.723728E-01
  4.739353E-01
  4.722303E-01
  4.691771E-01
  4.693032E-01
  4.711202E-01
  4.724246E-01
  4.704489E-01
  4.672859E-01
  4.621155E-01
  4.650053E-01
  4.649292E-01
  4.671874E-01
  4.673226E-01
  4.703227E-01
  4.697679E-01
  4.693613E-01
  4.652741E-01
  4.658431E-01
  4.667676E-01
  4.700016E-01
  4.676861E-01
  4.661743E-01
  4.637393E-01
  4.666703E-01
  4.684752E-01
  4.727915E-01
  4.739014E-01
  4.759658E-01
  4.731052E-01
  4.710226E-01
  4.657315E-01
  4.633097E-01
  4.604468E-01
  4.638724E-01
  4.675709E-01
  4.730435E-01
  4.721964E-01
  4.703900E-01
  4.656262E-01
  4.656216E-01
  4.648232E-01
  4.665541E-01
  4.658723E-01
  4.686536E-01
  4.687389E-01
  4.696404E-01
  4.661984E-01
  4.644083E-01
  4.608856E-01
  4.626424E-01
  4.641473E-01
  4.676392E-01
  4.669787E-01
  4.687977E-01
  4.689078E-01
  4.718621E-01
  4.718102E-01
  4.725785E-01
  4.682560E-01
  4.656360E-01
  4.621138E-01
  4.629680E-01
  4.622767E-01
  4.653507E-01
  4.671614E-01
  4.713287E-01
  4.717454E-01
  4.738399E-01
  4.720065E-01
  4.700757E-01
  4.642059E-01
  4.628775E-01
  4.653626E-01
  4.675815E-01
  4.662935E-01
  4.693190E-01
  4.693257E-01
  4.713377E-01
  4.677000E-01
  4.663187E-01
  4.625530E-01
  4.644101E-01
  4.645920E-01
  4.682504E-01
  4.668844E-01
  4.669211E-01
  4.635858E-01
  4.659905E-01
  4.671047E-01
  4.717820E-01
  4.722914E-01
  4.751265E-01
  4.726296E-01
  4.715312E-01
  4.664663E-01
  4.656414E-01
  4.627136E-01
  4.647090E-01
  4.650341E-01
  4.693986E-01
  4.690516E-01
  4.703535E-01
  4.685262E-01
  4.718040E-01
  4.713748E-01
  4.712680E-01
  4.658346E-01
  4.654803E-01
  4.642678E-01
  4.670702E-01
  4.663487E-01
  4.691859E-01
  4.679369E-01
  4.686270E-01
  4.654635E-01
  4.665969E-01
  4.656265E-01
  4.687928E-01
  4.682084E-01
  4.700602E-01
  4.678437E-01
  4.681498E-01
  4.637637E-01
  4.629193E-01
  4.610699E-01
  4.648366E-01
  4.654272E-01
  4.685019E-01
  4.676085E-01
  4.701305E-01
  4.695837E-01
  4.723281E-01
  4.702132E-01
  4.695199E-01
  4.652612E-01
  4.662951E-01
  4.657115E-01
  4.680379E-01
  4.668018E-01
  4.668573E-01
  4.674018E-01
  4.697714E-01
  4.697758E-01
  4.688139E-01
  4.656974E-01
  4.649321E-01
  4.649591E-01
  4.663118E-01
  4.648976E-01
  4.640883E-01
  4.642761E-01
  4.678452E-01
  4.692998E-01
  4.690291E-01
  4.670347E-01
  4.686371E-01
  4.708106E-01
  4.725114E-01
  4.699018E-01
  4.668529E-01
  4.629493E-01
  4.610425E-01
  4.595894E-01
  4.620052E-01
  4.647974E-01
  4.670850E-01
  4.660834E-01
  4.667009E-01
  4.672490E-01
  4.681763E-01
  4.672428E-01
  4.681610E-01
  4.677458E-01
  4.669720E-01
  4.650818E-01
  4.664920E-01
  4.683197E-01
  4.703554E-01
  4.683617E-01
  4.654674E-01
  4.629556E-01
  4.651008E-01
  4.669196E-01
  4.674263E-01
  4.647186E-01
  4.629636E-01
  4.608464E-01
  4.619155E-01
  4.644857E-01
  4.685402E-01
  4.688759E-01
  4.682389E-01
  4.670521E-01
  4.686274E-01
  4.691086E-01
  4.688403E-01
  4.650251E-01
  4.616617E-01
  4.595361E-01
  4.624380E-01
  4.735746E-01
  4.698048E-01
  4.675073E-01
  4.653579E-01
  4.675834E-01
  4.674552E-01
  4.686280E-01
  4.672816E-01
  4.679856E-01
  4.655510E-01
  4.651048E-01
  4.635738E-01
  4.653560E-01
  4.650462E-01
  4.676694E-01
  4.689445E-01
  4.710867E-01
  4.681654E-01
  4.677702E-01
  4.687151E-01
  4.735084E-01
  4.730134E-01
  4.713097E-01
  4.672272E-01
  4.664566E-01
  4.628561E-01
  4.615452E-01
  4.609395E-01
  4.650658E-01
  4.655089E-01
  4.660434E-01
  4.653754E-01
  4.685556E-01
  4.679663E-01
  4.674931E-01
  4.652644E-01
  4.663367E-01
  4.646764E-01
  4.657983E-01
  4.671154E-01
  4.712212E-01
  4.701146E-01
  4.686859E-01
  4.658248E-01
  4.677031E-01
  4.678622E-01
  4.678824E-01
  4.633445E-01
  4.618909E-01
  4.606849E-01
  4.628854E-01
  4.633195E-01
  4.677865E-01
  4.715175E-01
  4.757489E-01
  4.732778E-01
  4.698487E-01
  4.643527E-01
  4.630912E-01
  4.608402E-01
  4.615297E-01
  4.619359E-01
  4.673665E-01
  4.709989E-01
  4.769657E-01
  4.726032E-01
  4.687238E-01
  4.639891E-01
  4.653307E-01
  4.656772E-01
  4.690166E-01
  4.688153E-01
  4.700624E-01
  4.673025E-01
  4.672184E-01
  4.644602E-01
  4.643200E-01
  4.627785E-01
  4.679142E-01
  4.725933E-01
  4.768428E-01
  4.724459E-01
  4.695435E-01
  4.680852E-01
  4.728973E-01
  4.726331E-01
  4.704395E-01
  4.641278E-01
  4.625950E-01
  4.595043E-01
  4.600620E-01
  4.606762E-01
  4.657862E-01
  4.646403E-01
  4.622127E-01
  4.588003E-01
  4.633304E-01
  4.670329E-01
  4.719404E-01
  4.717168E-01
  4.716972E-01
  4.665938E-01
  4.647734E-01
  4.629200E-01
  4.656543E-01
  4.651407E-01
  4.665457E-01
  4.656044E-01
  4.689219E-01
  4.692011E-01
  4.690836E-01
  4.634291E-01
  4.621399E-01
  4.617669E-01
  4.657090E-01
  4.664358E-01
  4.703091E-01
  4.715943E-01
  4.733197E-01
  4.685626E-01
  4.654987E-01
  4.614244E-01
  4.616597E-01
  4.588650E-01
  4.592625E-01
  4.600014E-01
  4.675091E-01
  4.728853E-01
  4.814167E-01
  4.756018E-01
  4.700150E-01
  4.668847E-01
  4.666804E-01
  4.653159E-01
  4.641115E-01
  4.638897E-01
  4.662225E-01
  4.672800E-01
  4.671551E-01
  4.653261E-01
  4.639945E-01
  4.627172E-01
  4.647920E-01
  4.689404E-01
  4.729423E-01
  4.723246E-01
  4.702910E-01
  4.691387E-01
  4.702766E-01
  4.692180E-01
  4.665202E-01
  4.635439E-01
  4.632929E-01
  4.629365E-01
  4.634746E-01
  4.651868E-01
  4.681800E-01
  4.671709E-01
  4.643342E-01
  4.639508E-01
  4.690968E-01
  4.734204E-01
  4.740730E-01
  4.708509E-01
  4.679795E-01
  4.653392E-01
  4.651578E-01
  4.659221E-01
  4.666166E-01
  4.646364E-01
  4.644640E-01
  4.677990E-01
  4.734661E-01
  4.741130E-01
  4.691365E-01
  4.619063E-01
  4.600706E-01
  4.631498E-01
  4.677960E-01
  4.688713E-01
  4.692820E-01
  4.702215E-01
  4.715095E-01
  4.687430E-01
  4.644271E-01
  4.609915E-01
  4.608522E-01
  4.608451E-01
  4.624139E-01
  4.666662E-01
  4.749229E-01
  4.809704E-01
  4.756777E-01
  4.737168E-01
  4.695753E-01
  4.668578E-01
  4.657131E-01
  4.653188E-01
  4.643065E-01
  4.639977E-01
  4.644925E-01
  4.660341E-01
  4.668856E-01
  4.659915E-01
  4.624548E-01
  4.596801E-01
  4.604864E-01
  4.648797E-01
  4.681994E-01
  4.682118E-01
  4.653779E-01
  4.635034E-01
  4.640553E-01
  4.663537E-01
  4.669974E-01
  4.659426E-01
  4.641352E-01
  4.631000E-01
  4.630459E-01
  4.656707E-01
  4.686429E-01
  4.684716E-01
  4.650353E-01
  4.645256E-01
  4.687463E-01
  4.740173E-01
  4.750950E-01
  4.725044E-01
  4.684207E-01
  4.657542E-01
  4.646353E-01
  4.647521E-01
  4.643233E-01
  4.641680E-01
  4.652035E-01
  4.685506E-01
  4.716448E-01
  4.717514E-01
  4.672703E-01
  4.620067E-01
  4.598527E-01
  4.623020E-01
  4.655990E-01
  4.674519E-01
  4.677122E-01
  4.680352E-01
  4.667923E-01
  4.641874E-01
  4.625944E-01
  4.649451E-01
  4.682909E-01
  4.692757E-01
  4.674088E-01
  4.669576E-01
  4.695913E-01
  4.739666E-01
  4.728893E-01
  4.694546E-01
  4.689242E-01
  4.668058E-01
  4.679713E-01
  4.652276E-01
  4.642946E-01
  4.611267E-01
  4.623301E-01
  4.616264E-01
  4.639384E-01
  4.633678E-01
  4.650925E-01
  4.630985E-01
  4.635404E-01
  4.614566E-01
  4.627719E-01
  4.615308E-01
  4.626707E-01
  4.605397E-01
  4.624532E-01
  4.641280E-01
  4.698055E-01
  4.709358E-01
  4.719449E-01
  4.683454E-01
  4.685065E-01
  4.683068E-01
  4.715211E-01
  4.696466E-01
  4.696399E-01
  4.695381E-01
  4.746356E-01
  4.742300E-01
  4.714293E-01
  4.641286E-01
  4.628592E-01
  4.626189E-01
  4.666748E-01
  4.672451E-01
  4.687838E-01
  4.659286E-01
  4.670381E-01
  4.681644E-01
  4.721156E-01
  4.691186E-01
  4.654303E-01
  4.595921E-01
  4.599618E-01
  4.602523E-01
  4.637807E-01
  4.634470E-01
  4.658482E-01
  4.665577E-01
  4.699210E-01
  4.684809E-01
  4.694050E-01
  4.696558E-01
  4.742687E-01
  4.743860E-01
  4.745952E-01
  4.713425E-01
  4.725468E-01
  4.718838E-01
  4.665693E-01
  4.650319E-01
  4.685976E-01
  4.647481E-01
  4.674831E-01
  4.649567E-01
  4.689338E-01
  4.645125E-01
  4.643838E-01
  4.588465E-01
  4.628850E-01
  4.624533E-01
  4.678849E-01
  4.662949E-01
  4.706924E-01
  4.669287E-01
  4.672732E-01
  4.607441E-01
  4.614814E-01
  4.573452E-01
  4.625186E-01
  4.647913E-01
  4.733684E-01
  4.713359E-01
  4.718196E-01
  4.657662E-01
  4.688884E-01
  4.682903E-01
  4.734370E-01
  4.685568E-01
  4.683185E-01
  4.645412E-01
  4.703328E-01
  4.686092E-01
  4.698251E-01
  4.638162E-01
  4.662797E-01
  4.638327E-01
  4.669391E-01
  4.628322E-01
  4.660867E-01
  4.645523E-01
  4.695906E-01
  4.670082E-01
  4.691449E-01
  4.639029E-01
  4.655107E-01
  4.619732E-01
  4.650763E-01