# vtk DataFile Version 2.0
title
ASCII
DATASET STRUCTURED_GRID
DIMENSIONS   64   64    1
POINTS   4096  float
  0.000000E+00  0.000000E+00  0.000000E+00
  0.000000E+00  3.906250E-01  0.000000E+00
  0.000000E+00  7.812500E-01  0.000000E+00
  0.000000E+00  1.171875E+00  0.000000E+00
  0.000000E+00  1.562500E+00  0.000000E+00
  0.000000E+00  1.953125E+00  0.000000E+00
  0.000000E+00  2.343750E+00  0.000000E+00
  0.000000E+00  2.734375E+00  0.000000E+00
  0.000000E+00  3.125000E+00  0.000000E+00
  0.000000E+00  3.515625E+00  0.000000E+00
  0.000000E+00  3.906250E+00  0.000000E+00
  0.000000E+00  4.296875E+00  0.000000E+00
  0.000000E+00  4.687500E+00  0.000000E+00
  0.000000E+00  5.078125E+00  0.000000E+00
  0.000000E+00  5.468750E+00  0.000000E+00
  0.000000E+00  5.859375E+00  0.000000E+00
  0.000000E+00  6.250000E+00  0.000000E+00
  0.000000E+00  6.640625E+00  0.000000E+00
  0.000000E+00  7.031250E+00  0.000000E+00
  0.000000E+00  7.421875E+00  0.000000E+00
  0.000000E+00  7.812500E+00  0.000000E+00
  0.000000E+00  8.203125E+00  0.000000E+00
  0.000000E+00  8.593750E+00  0.000000E+00
  0.000000E+00  8.984375E+00  0.000000E+00
  0.000000E+00  9.375000E+00  0.000000E+00
  0.000000E+00  9.765625E+00  0.000000E+00
  0.000000E+00  1.015625E+01  0.000000E+00
  0.000000E+00  1.054688E+01  0.000000E+00
  0.000000E+00  1.093750E+01  0.000000E+00
  0.000000E+00  1.132812E+01  0.000000E+00
  0.000000E+00  1.171875E+01  0.000000E+00
  0.000000E+00  1.210938E+01  0.000000E+00
  0.000000E+00  1.250000E+01  0.000000E+00
  0.000000E+00  1.289062E+01  0.000000E+00
  0.000000E+00  1.328125E+01  0.000000E+00
  0.000000E+00  1.367188E+01  0.000000E+00
  0.000000E+00  1.406250E+01  0.000000E+00
  0.000000E+00  1.445312E+01  0.000000E+00
  0.000000E+00  1.484375E+01  0.000000E+00
  0.000000E+00  1.523438E+01  0.000000E+00
  0.000000E+00  1.562500E+01  0.000000E+00
  0.000000E+00  1.601562E+01  0.000000E+00
  0.000000E+00  1.640625E+01  0.000000E+00
  0.000000E+00  1.679688E+01  0.000000E+00
  0.000000E+00  1.718750E+01  0.000000E+00
  0.000000E+00  1.757812E+01  0.000000E+00
  0.000000E+00  1.796875E+01  0.000000E+00
  0.000000E+00  1.835938E+01  0.000000E+00
  0.000000E+00  1.875000E+01  0.000000E+00
  0.000000E+00  1.914062E+01  0.000000E+00
  0.000000E+00  1.953125E+01  0.000000E+00
  0.000000E+00  1.992188E+01  0.000000E+00
  0.000000E+00  2.031250E+01  0.000000E+00
  0.000000E+00  2.070312E+01  0.000000E+00
  0.000000E+00  2.109375E+01  0.000000E+00
  0.000000E+00  2.148438E+01  0.000000E+00
  0.000000E+00  2.187500E+01  0.000000E+00
  0.000000E+00  2.226562E+01  0.000000E+00
  0.000000E+00  2.265625E+01  0.000000E+00
  0.000000E+00  2.304688E+01  0.000000E+00
  0.000000E+00  2.343750E+01  0.000000E+00
  0.000000E+00  2.382812E+01  0.000000E+00
  0.000000E+00  2.421875E+01  0.000000E+00
  0.000000E+00  2.460938E+01  0.000000E+00
  3.906250E-01  0.000000E+00  0.000000E+00
  3.906250E-01  3.906250E-01  0.000000E+00
  3.906250E-01  7.812500E-01  0.000000E+00
  3.906250E-01  1.171875E+00  0.000000E+00
  3.906250E-01  1.562500E+00  0.000000E+00
  3.906250E-01  1.953125E+00  0.000000E+00
  3.906250E-01  2.343750E+00  0.000000E+00
  3.906250E-01  2.734375E+00  0.000000E+00
  3.906250E-01  3.125000E+00  0.000000E+00
  3.906250E-01  3.515625E+00  0.000000E+00
  3.906250E-01  3.906250E+00  0.000000E+00
  3.906250E-01  4.296875E+00  0.000000E+00
  3.906250E-01  4.687500E+00  0.000000E+00
  3.906250E-01  5.078125E+00  0.000000E+00
  3.906250E-01  5.468750E+00  0.000000E+00
  3.906250E-01  5.859375E+00  0.000000E+00
  3.906250E-01  6.250000E+00  0.000000E+00
  3.906250E-01  6.640625E+00  0.000000E+00
  3.906250E-01  7.031250E+00  0.000000E+00
  3.906250E-01  7.421875E+00  0.000000E+00
  3.906250E-01  7.812500E+00  0.000000E+00
  3.906250E-01  8.203125E+00  0.000000E+00
  3.906250E-01  8.593750E+00  0.000000E+00
  3.906250E-01  8.984375E+00  0.000000E+00
  3.906250E-01  9.375000E+00  0.000000E+00
  3.906250E-01  9.765625E+00  0.000000E+00
  3.906250E-01  1.015625E+01  0.000000E+00
  3.906250E-01  1.054688E+01  0.000000E+00
  3.906250E-01  1.093750E+01  0.000000E+00
  3.906250E-01  1.132812E+01  0.000000E+00
  3.906250E-01  1.171875E+01  0.000000E+00
  3.906250E-01  1.210938E+01  0.000000E+00
  3.906250E-01  1.250000E+01  0.000000E+00
  3.906250E-01  1.289062E+01  0.000000E+00
  3.906250E-01  1.328125E+01  0.000000E+00
  3.906250E-01  1.367188E+01  0.000000E+00
  3.906250E-01  1.406250E+01  0.000000E+00
  3.906250E-01  1.445312E+01  0.000000E+00
  3.906250E-01  1.484375E+01  0.000000E+00
  3.906250E-01  1.523438E+01  0.000000E+00
  3.906250E-01  1.562500E+01  0.000000E+00
  3.906250E-01  1.601562E+01  0.000000E+00
  3.906250E-01  1.640625E+01  0.000000E+00
  3.906250E-01  1.679688E+01  0.000000E+00
  3.906250E-01  1.718750E+01  0.000000E+00
  3.906250E-01  1.757812E+01  0.000000E+00
  3.906250E-01  1.796875E+01  0.000000E+00
  3.906250E-01  1.835938E+01  0.000000E+00
  3.906250E-01  1.875000E+01  0.000000E+00
  3.906250E-01  1.914062E+01  0.000000E+00
  3.906250E-01  1.953125E+01  0.000000E+00
  3.906250E-01  1.992188E+01  0.000000E+00
  3.906250E-01  2.031250E+01  0.000000E+00
  3.906250E-01  2.070312E+01  0.000000E+00
  3.906250E-01  2.109375E+01  0.000000E+00
  3.906250E-01  2.148438E+01  0.000000E+00
  3.906250E-01  2.187500E+01  0.000000E+00
  3.906250E-01  2.226562E+01  0.000000E+00
  3.906250E-01  2.265625E+01  0.000000E+00
  3.906250E-01  2.304688E+01  0.000000E+00
  3.906250E-01  2.343750E+01  0.000000E+00
  3.906250E-01  2.382812E+01  0.000000E+00
  3.906250E-01  2.421875E+01  0.000000E+00
  3.906250E-01  2.460938E+01  0.000000E+00
  7.812500E-01  0.000000E+00  0.000000E+00
  7.812500E-01  3.906250E-01  0.000000E+00
  7.812500E-01  7.812500E-01  0.000000E+00
  7.812500E-01  1.171875E+00  0.000000E+00
  7.812500E-01  1.562500E+00  0.000000E+00
  7.812500E-01  1.953125E+00  0.000000E+00
  7.812500E-01  2.343750E+00  0.000000E+00
  7.812500E-01  2.734375E+00  0.000000E+00
  7.812500E-01  3.125000E+00  0.000000E+00
  7.812500E-01  3.515625E+00  0.000000E+00
  7.812500E-01  3.906250E+00  0.000000E+00
  7.812500E-01  4.296875E+00  0.000000E+00
  7.812500E-01  4.687500E+00  0.000000E+00
  7.812500E-01  5.078125E+00  0.000000E+00
  7.812500E-01  5.468750E+00  0.000000E+00
  7.812500E-01  5.859375E+00  0.000000E+00
  7.812500E-01  6.250000E+00  0.000000E+00
  7.812500E-01  6.640625E+00  0.000000E+00
  7.812500E-01  7.031250E+00  0.000000E+00
  7.812500E-01  7.421875E+00  0.000000E+00
  7.812500E-01  7.812500E+00  0.000000E+00
  7.812500E-01  8.203125E+00  0.000000E+00
  7.812500E-01  8.593750E+00  0.000000E+00
  7.812500E-01  8.984375E+00  0.000000E+00
  7.812500E-01  9.375000E+00  0.000000E+00
  7.812500E-01  9.765625E+00  0.000000E+00
  7.812500E-01  1.015625E+01  0.000000E+00
  7.812500E-01  1.054688E+01  0.000000E+00
  7.812500E-01  1.093750E+01  0.000000E+00
  7.812500E-01  1.132812E+01  0.000000E+00
  7.812500E-01  1.171875E+01  0.000000E+00
  7.812500E-01  1.210938E+01  0.000000E+00
  7.812500E-01  1.250000E+01  0.000000E+00
  7.812500E-01  1.289062E+01  0.000000E+00
  7.812500E-01  1.328125E+01  0.000000E+00
  7.812500E-01  1.367188E+01  0.000000E+00
  7.812500E-01  1.406250E+01  0.000000E+00
  7.812500E-01  1.445312E+01  0.000000E+00
  7.812500E-01  1.484375E+01  0.000000E+00
  7.812500E-01  1.523438E+01  0.000000E+00
  7.812500E-01  1.562500E+01  0.000000E+00
  7.812500E-01  1.601562E+01  0.000000E+00
  7.812500E-01  1.640625E+01  0.000000E+00
  7.812500E-01  1.679688E+01  0.000000E+00
  7.812500E-01  1.718750E+01  0.000000E+00
  7.812500E-01  1.757812E+01  0.000000E+00
  7.812500E-01  1.796875E+01  0.000000E+00
  7.812500E-01  1.835938E+01  0.000000E+00
  7.812500E-01  1.875000E+01  0.000000E+00
  7.812500E-01  1.914062E+01  0.000000E+00
  7.812500E-01  1.953125E+01  0.000000E+00
  7.812500E-01  1.992188E+01  0.000000E+00
  7.812500E-01  2.031250E+01  0.000000E+00
  7.812500E-01  2.070312E+01  0.000000E+00
  7.812500E-01  2.109375E+01  0.000000E+00
  7.812500E-01  2.148438E+01  0.000000E+00
  7.812500E-01  2.187500E+01  0.000000E+00
  7.812500E-01  2.226562E+01  0.000000E+00
  7.812500E-01  2.265625E+01  0.000000E+00
  7.812500E-01  2.304688E+01  0.000000E+00
  7.812500E-01  2.343750E+01  0.000000E+00
  7.812500E-01  2.382812E+01  0.000000E+00
  7.812500E-01  2.421875E+01  0.000000E+00
  7.812500E-01  2.460938E+01  0.000000E+00
  1.171875E+00  0.000000E+00  0.000000E+00
  1.171875E+00  3.906250E-01  0.000000E+00
  1.171875E+00  7.812500E-01  0.000000E+00
  1.171875E+00  1.171875E+00  0.000000E+00
  1.171875E+00  1.562500E+00  0.000000E+00
  1.171875E+00  1.953125E+00  0.000000E+00
  1.171875E+00  2.343750E+00  0.000000E+00
  1.171875E+00  2.734375E+00  0.000000E+00
  1.171875E+00  3.125000E+00  0.000000E+00
  1.171875E+00  3.515625E+00  0.000000E+00
  1.171875E+00  3.906250E+00  0.000000E+00
  1.171875E+00  4.296875E+00  0.000000E+00
  1.171875E+00  4.687500E+00  0.000000E+00
  1.171875E+00  5.078125E+00  0.000000E+00
  1.171875E+00  5.468750E+00  0.000000E+00
  1.171875E+00  5.859375E+00  0.000000E+00
  1.171875E+00  6.250000E+00  0.000000E+00
  1.171875E+00  6.640625E+00  0.000000E+00
  1.171875E+00  7.031250E+00  0.000000E+00
  1.171875E+00  7.421875E+00  0.000000E+00
  1.171875E+00  7.812500E+00  0.000000E+00
  1.171875E+00  8.203125E+00  0.000000E+00
  1.171875E+00  8.593750E+00  0.000000E+00
  1.171875E+00  8.984375E+00  0.000000E+00
  1.171875E+00  9.375000E+00  0.000000E+00
  1.171875E+00  9.765625E+00  0.000000E+00
  1.171875E+00  1.015625E+01  0.000000E+00
  1.171875E+00  1.054688E+01  0.000000E+00
  1.171875E+00  1.093750E+01  0.000000E+00
  1.171875E+00  1.132812E+01  0.000000E+00
  1.171875E+00  1.171875E+01  0.000000E+00
  1.171875E+00  1.210938E+01  0.000000E+00
  1.171875E+00  1.250000E+01  0.000000E+00
  1.171875E+00  1.289062E+01  0.000000E+00
  1.171875E+00  1.328125E+01  0.000000E+00
  1.171875E+00  1.367188E+01  0.000000E+00
  1.171875E+00  1.406250E+01  0.000000E+00
  1.171875E+00  1.445312E+01  0.000000E+00
[...]
POINT_DATA   4096
SCALARS CON  float  1
LOOKUP_TABLE default
  4.712719E-01
  4.742547E-01
  4.836057E-01
  4.787280E-01
  4.787856E-01
  4.691391E-01
  4.715355E-01
  4.689534E-01
  4.774295E-01
  4.753759E-01
  4.786524E-01
  4.695190E-01
  4.689327E-01
  4.618453E-01
  4.676558E-01
  4.673958E-01
  4.765405E-01
  4.744124E-01
  4.781623E-01
  4.703877E-01
  4.709367E-01
  4.628361E-01
  4.642999E-01
  4.571118E-01
  4.596524E-01
  4.551917E-01
  4.627401E-01
  4.640608E-01
  4.749830E-01
  4.744288E-01
  4.789439E-01
  4.713556E-01
  4.727671E-01
  4.674588E-01
  4.736734E-01
  4.712212E-01
  4.757330E-01
  4.682369E-01
  4.681574E-01
  4.595243E-01
  4.615907E-01
  4.560235E-01
  4.595914E-01
  4.536911E-01
  4.571054E-01
  4.540648E-01
  4.642717E-01
  4.693785E-01
  4.837747E-01
  4.838367E-01
  4.846055E-01
  4.696713E-01
  4.634739E-01
  4.545374E-01
  4.640574E-01
  4.726014E-01
  4.920895E-01
  4.965569E-01
  5.000916E-01
  4.858086E-01
  4.776512E-01
  4.629910E-01
  4.630742E-01
  4.604126E-01
  4.725020E-01
  4.773418E-01
  4.880352E-01
  4.858972E-01
  4.847589E-01
  4.725951E-01
  4.690519E-01
  4.629106E-01
  4.692044E-01
  4.707588E-01
  4.787277E-01
  4.757918E-01
  4.766776E-01
  4.685922E-01
  4.689106E-01
  4.646560E-01
  4.704648E-01
  4.698792E-01
  4.753210E-01
  4.706204E-01
  4.710215E-01
  4.635746E-01
  4.647443E-01
  4.604481E-01
  4.647322E-01
  4.620654E-01
  4.668384E-01
  4.648778E-01
  4.713336E-01
  4.710862E-01
  4.775610E-01
  4.744986E-01
  4.761828E-01
  4.686405E-01
  4.683331E-01
  4.621684E-01
  4.654960E-01
  4.629502E-01
  4.676656E-01
  4.634303E-01
  4.643777E-01
  4.564672E-01
  4.557097E-01
  4.490137E-01
  4.522019E-01
  4.517901E-01
  4.626386E-01
  4.688747E-01
  4.815778E-01
  4.813510E-01
  4.809841E-01
  4.683952E-01
  4.647269E-01
  4.610116E-01
  4.734793E-01
  4.839079E-01
  4.997674E-01
  4.994373E-01
  4.965823E-01
  4.805838E-01
  4.725837E-01
  4.616413E-01
  4.632570E-01
  4.622939E-01
  4.632028E-01
  4.766810E-01
  4.890936E-01
  4.906543E-01
  4.851946E-01
  4.730622E-01
  4.651142E-01
  4.609749E-01
  4.649632E-01
  4.698051E-01
  4.760656E-01
  4.767370E-01
  4.759379E-01
  4.711322E-01
  4.690772E-01
  4.668366E-01
  4.686386E-01
  4.690300E-01
  4.711959E-01
  4.701868E-01
  4.704719E-01
  4.681145E-01
  4.677275E-01
  4.650440E-01
  4.645835E-01
  4.625140E-01
  4.637071E-01
  4.638596E-01
  4.665126E-01
  4.661351E-01
  4.664690E-01
  4.637066E-01
  4.635664E-01
  4.628232E-01
  4.657955E-01
  4.669189E-01
  4.690172E-01
  4.669816E-01
  4.654566E-01
  4.608838E-01
  4.582625E-01
  4.536666E-01
  4.517762E-01
  4.489575E-01
  4.505513E-01
  4.533527E-01
  4.618775E-01
  4.703065E-01
  4.795265E-01
  4.813012E-01
  4.785122E-01
  4.692363E-01
  4.631602E-01
  4.610323E-01
  4.693139E-01
  4.814034E-01
  4.952927E-01
  4.993642E-01
  4.947451E-01
  4.795830E-01
  4.645350E-01
  4.512447E-01
  4.476839E-01
  4.506927E-01
  4.636282E-01
  4.778566E-01
  4.856565E-01
  4.904940E-01
  4.812824E-01
  4.706551E-01
  4.563115E-01
  4.525426E-01
  4.523895E-01
  4.627425E-01
  4.703729E-01
  4.793062E-01
  4.777950E-01
  4.755629E-01
  4.670353E-01
  4.649600E-01
  4.625444E-01
  4.681372E-01
  4.703191E-01
  4.752474E-01
  4.728053E-01
  4.729193E-01
  4.685009E-01
  4.695684E-01
  4.667815E-01
  4.679154E-01
  4.635825E-01
  4.635085E-01
  4.603576E-01
  4.638474E-01
  4.643369E-01
  4.686314E-01
  4.659508E-01
  4.650607E-01
  4.589287E-01
  4.590576E-01
  4.581074E-01
  4.641483E-01
  4.656360E-01
  4.687502E-01
  4.637195E-01
  4.610229E-01
  4.545402E-01
  4.552783E-01
  4.550440E-01
  4.619577E-01
  4.657597E-01
  4.736206E-01
  4.745887E-01
  4.760017E-01
  4.689923E-01
  4.651082E-01
  4.595117E-01
  4.641658E-01
  4.703019E-01
  4.831743E-01
  4.880366E-01
  4.895677E-01
  4.789212E-01
  4.693972E-01
  4.569640E-01
  4.532800E-01
  4.502493E-01
  4.567044E-01
  4.582861E-01
  4.760508E-01
  4.808420E-01
  4.871745E-01
  4.743716E-01
  4.667845E-01
  4.512905E-01
  4.517269E-01
  4.495589E-01
  4.617833E-01
  4.652152E-01
  4.756376E-01
  4.715234E-01
  4.735051E-01
  4.646640E-01
  4.672999E-01
  4.631005E-01
  4.711107E-01
  4.701577E-01
  4.780076E-01
  4.737485E-01
  4.770334E-01
  4.688688E-01
  4.698658E-01
  4.612411E-01
  4.631986E-01
  4.567010E-01
  4.613388E-01
  4.573089E-01
  4.633435E-01
  4.592816E-01
  4.643578E-01
  4.593148E-01
  4.643712E-01
  4.605635E-01
  4.673585E-01
  4.645160E-01
  4.706039E-01
  4.653196E-01
  4.681730E-01
  4.602911E-01
  4.626146E-01
  4.569703E-01
  4.634124E-01
  4.620743E-01
  4.712988E-01
  4.700994E-01
  4.769964E-01
  4.715946E-01
  4.734451E-01
  4.635190E-01
  4.630197E-01
  4.546766E-01
  4.598571E-01
  4.597581E-01
  4.722616E-01
  4.742647E-01
  4.817006E-01
  4.730887E-01
  4.694933E-01
  4.546300E-01
  4.516847E-01
  4.442077E-01
  4.530007E-01
  4.644922E-01
  4.760628E-01
  4.755466E-01
  4.814212E-01
  4.694103E-01
  4.640864E-01
  4.482210E-01
  4.483245E-01
  4.446282E-01
  4.577297E-01
  4.620358E-01
  4.749110E-01
  4.710469E-01
  4.731240E-01
  4.622889E-01
  4.648700E-01
  4.612321E-01
  4.728207E-01
  4.742031E-01
  4.837394E-01
  4.771023E-01
  4.778095E-01
  4.664070E-01
  4.674587E-01
  4.592577E-01
  4.630006E-01
  4.559705E-01
  4.606708E-01
  4.564237E-01
  4.659009E-01
  4.658566E-01
  4.755958E-01
  4.703142E-01
  4.720847E-01
  4.613201E-01
  4.638355E-01
  4.596139E-01
  4.697043E-01
  4.686407E-01
  4.755716E-01
  4.678414E-01
  4.701240E-01
  4.634597E-01
  4.714152E-01
  4.705938E-01
  4.802530E-01
  4.756071E-01
  4.784608E-01
  4.676602E-01
  4.672246E-01
  4.564717E-01
  4.586875E-01
  4.528323E-01
  4.610747E-01
  4.603759E-01
  4.704071E-01
  4.666277E-01
  4.704876E-01
  4.612230E-01
  4.634209E-01
  4.564095E-01
  4.620902E-01
  4.578097E-01
  4.656838E-01
  4.625752E-01
  4.719495E-01
  4.719192E-01
  4.761829E-01
  4.673110E-01
  4.640704E-01
  4.536132E-01
  4.551476E-01
  4.530827E-01
  4.622801E-01
  4.637055E-01
  4.711293E-01
  4.668301E-01
  4.684755E-01
  4.621255E-01
  4.666291E-01
  4.663308E-01
  4.765185E-01
  4.780332E-01
  4.847125E-01
  4.784640E-01
  4.767429E-01
  4.650836E-01
  4.623415E-01
  4.536202E-01
  4.559421E-01
  4.528624E-01
  4.600437E-01
  4.601161E-01
  4.683637E-01
  4.673949E-01
  4.732360E-01
  4.694808E-01
  4.735355E-01
  4.698117E-01
  4.751924E-01
  4.724702E-01
  4.769704E-01
  4.712594E-01
  4.722069E-01
  4.647917E-01
  4.675817E-01
  4.653158E-01
  4.739539E-01
  4.748244E-01
  4.818456E-01
  4.768124E-01
  4.768512E-01
  4.671935E-01
  4.662785E-01
  4.585016E-01
  4.602927E-01
  4.550086E-01
  4.589479E-01
  4.558248E-01
  4.618857E-01
  4.601751E-01
  4.663686E-01
  4.632869E-01
  4.670837E-01
  4.614397E-01
  4.635294E-01
  4.581494E-01
  4.630950E-01
  4.675891E-01
  4.686063E-01
  4.684715E-01
  4.714650E-01
  4.692260E-01
  4.671895E-01
  4.609999E-01
  4.594903E-01
  4.587064E-01
  4.644821E-01
  4.684334E-01
  4.733117E-01
  4.710727E-01
  4.686133E-01
  4.630663E-01
  4.640137E-01
  4.671141E-01
  4.768556E-01
  4.829025E-01
  4.868375E-01
  4.808730E-01
  4.734652E-01
  4.629094E-01
  4.586690E-01
  4.555387E-01
  4.582177E-01
  4.590295E-01
  4.632206E-01
  4.652241E-01
  4.715768E-01
  4.755386E-01
  4.810804E-01
  4.800766E-01
  4.785386E-01
  4.726686E-01
  4.716084E-01
  4.707725E-01
  4.749528E-01
  4.751770E-01
  4.755037E-01
  4.704896E-01
  4.689674E-01
  4.674932E-01
  4.724085E-01
  4.753666E-01
  4.792355E-01
  4.762048E-01
  4.732317E-01
  4.665594E-01
  4.642025E-01
  4.608033E-01
  4.621350E-01
  4.617151E-01
  4.649419E-01
  4.648540E-01
  4.663666E-01
  4.631045E-01
  4.622297E-01
  4.598038E-01
  4.632136E-01
  4.657612E-01
  4.710694E-01
  4.708825E-01
  4.710885E-01
  4.609137E-01
  4.617782E-01
  4.656967E-01
  4.687293E-01
  4.717443E-01
  4.717499E-01
  4.718488E-01
  4.709096E-01
  4.722212E-01
  4.730776E-01
  4.746345E-01
  4.731069E-01
  4.706782E-01
  4.663480E-01
  4.648855E-01
  4.656934E-01
  4.713011E-01
  4.774184E-01
  4.832440E-01
  4.833752E-01
  4.793649E-01
  4.705825E-01
  4.627185E-01
  4.563053E-01
  4.552914E-01
  4.572016E-01
  4.629503E-01
  4.678833E-01
  4.724422E-01
  4.733773E-01
  4.736505E-01
  4.721783E-01
  4.727323E-01
  4.736724E-01
  4.772211E-01
  4.796708E-01
  4.815709E-01
  4.791113E-01
  4.748528E-01
  4.681276E-01
  4.638600E-01
  4.615372E-01
  4.638430E-01
  4.669645E-01
  4.710642E-01
  4.719881E-01
  4.719285E-01
  4.696764E-01
  4.691247E-01
  4.684379E-01
  4.694878E-01
  4.688966E-01
  4.686204E-01
  4.665543E-01
  4.658603E-01
  4.647495E-01
  4.658561E-01
  4.665517E-01
  4.686881E-01
  4.690729E-01
  4.693989E-01
  4.669363E-01
  4.645979E-01
  4.612899E-01
  4.612299E-01
  4.583084E-01
  4.621971E-01
  4.666872E-01
  4.737844E-01
  4.756578E-01
  4.768079E-01
  4.738959E-01
  4.744071E-01
  4.742918E-01
  4.774620E-01
  4.764648E-01
  4.748568E-01
  4.683556E-01
  4.649003E-01
  4.626141E-01
  4.679016E-01
  4.740209E-01
  4.817723E-01
  4.817680E-01
  4.778727E-01
  4.677804E-01
  4.613500E-01
  4.571601E-01
  4.609059E-01
  4.655415E-01
  4.728923E-01
  4.754136E-01
  4.776792E-01
  4.758115E-01
  4.763189E-01
  4.745041E-01
  4.749493E-01
  4.723197E-01
  4.723335E-01
  4.708990E-01
  4.731938E-01
  4.728943E-01
  4.733832E-01
  4.689971E-01
  4.660312E-01
  4.616333E-01
  4.623754E-01
  4.630120E-01
  4.669354E-01
  4.674559E-01
  4.692702E-01
  4.681873E-01
  4.701633E-01
  4.700930E-01
  4.723060E-01
  4.713360E-01
  4.727069E-01
  4.720336E-01
  4.742946E-01
  4.734051E-01
  4.735534E-01
  4.700816E-01
  4.696632E-01
  4.685257E-01
  4.712724E-01
  4.707658E-01
  4.701585E-01
  4.645007E-01
  4.532245E-01
  4.545324E-01
  4.597368E-01
  4.660480E-01
  4.728387E-01
  4.769204E-01
  4.790509E-01
  4.785539E-01
  4.781024E-01
  4.769897E-01
  4.762703E-01
  4.736907E-01
  4.703821E-01
  4.659488E-01
  4.636449E-01
  4.636072E-01
  4.673933E-01
  4.721378E-01
  4.766139E-01
  4.769429E-01
  4.737491E-01
  4.671710E-01
  4.615878E-01
  4.584935E-01
  4.608310E-01
  4.667492E-01
  4.750115E-01
  4.804437E-01
  4.815670E-01
  4.768131E-01
  4.701910E-01
  4.639999E-01
  4.623584E-01
  4.644493E-01
  4.700122E-01
  4.745891E-01
  4.766548E-01
  4.736648E-01
  4.682600E-01
  4.617570E-01
  4.580556E-01
  4.567921E-01
  4.586890E-01
  4.608193E-01
  4.633054E-01
  4.645505E-01
  4.666381E-01
  4.688586E-01
  4.723644E-01
  4.745225E-01
  4.753926E-01
  4.733094E-01
  4.708596E-01
  4.685590E-01
  4.692278E-01
  4.715828E-01
  4.758143E-01
  4.786817E-01
  4.799810E-01
  4.775846E-01
  4.731598E-01
  4.663715E-01
  4.601629E-01
  4.548500E-01
  4.562710E-01
  4.560447E-01
  4.581225E-01
  4.653812E-01
  4.708606E-01
  4.755875E-01
  4.744928E-01
  4.731124E-01
  4.700096E-01
  4.708126E-01
  4.709547E-01
  4.724249E-01
  4.694774E-01
  4.663143E-01
  4.610771E-01
  4.605470E-01
  4.622449E-01
  4.691679E-01
  4.740010E-01
  4.771195E-01
  4.730293E-01
  4.677108E-01
  4.611259E-01
  4.607436E-01
  4.635765E-01
  4.718409E-01
  4.779928E-01
  4.827274E-01
  4.807323E-01
  4.774129E-01
  4.712687E-01
  4.682136E-01
  4.646780E-01
  4.643329E-01
  4.629155E-01
  4.643996E-01
  4.645102E-01
  4.664843E-01
  4.653979E-01
  4.649907E-01
  4.619422E-01
  4.614675E-01
  4.604053E-01
  4.626822E-01
  4.635792E-01
  4.665204E-01
  4.674503E-01
  4.704953E-01
  4.711841E-01
  4.725615E-01
  4.700227E-01
  4.684372E-01
  4.658122E-01
  4.679416E-01
  4.708895E-01
  4.768154E-01
  4.791971E-01
  4.807772E-01
  4.780730E-01
  4.766121E-01
  4.731093E-01
  4.711337E-01
  4.658706E-01
  4.616455E-01
  4.538632E-01
  4.575644E-01
  4.593489E-01
  4.657445E-01
  4.680713E-01
  4.726911E-01
  4.714964E-01
  4.724276E-01
  4.688962E-01
  4.692136E-01
  4.659645E-01
  4.663108E-01
  4.625353E-01
  4.626138E-01
  4.600288E-01
  4.630902E-01
  4.644056E-01
  4.706496E-01
  4.727353E-01
  4.764328E-01
  4.730579E-01
  4.705543E-01
  4.632633E-01
  4.613629E-01
  4.595680E-01
  4.658467E-01
  4.708099E-01
  4.782910E-01
  4.773335E-01
  4.747573E-01
  4.654163E-01
  4.608230E-01
  4.565160E-01
  4.605417E-01
  4.635240E-01
  4.697716E-01
  4.691837E-01
  4.688198E-01
  4.628149E-01
  4.611346E-01
  4.579297E-01
  4.608022E-01
  4.612141E-01
  4.653750E-01
  4.651566E-01
  4.682994E-01
  4.678054E-01
  4.712531E-01
  4.703681E-01
  4.716599E-01
  4.671904E-01
  4.653584E-01
  4.605045E-01
  4.619937E-01
  4.632197E-01
  4.709885E-01
  4.756783E-01
  4.822112E-01
  4.810462E-01
  4.794408E-01
  4.711113E-01
  4.657943E-01
  4.579787E-01
  4.563799E-01
  4.633349E-01
  4.637751E-01
  4.623511E-01
  4.661896E-01
  4.669711E-01
  4.699970E-01
  4.673722E-01
  4.668617E-01
  4.630053E-01
  4.640181E-01
  4.627649E-01
  4.651405E-01
  4.630253E-01
  4.634147E-01
  4.604805E-01
  4.629138E-01
  4.646879E-01
  4.721997E-01
  4.761212E-01
  4.807160E-01
  4.772202E-01
  4.734524E-01
  4.650424E-01
  4.621622E-01
  4.595642E-01
  4.639226E-01
  4.662445E-01
  4.711481E-01
  4.701672E-01
  4.706647E-01
  4.669081E-01
  4.670464E-01
  4.641906E-01
  4.649661E-01
  4.621945E-01
  4.632939E-01
  4.617559E-01
  4.646424E-01
  4.643034E-01
  4.670272E-01
  4.655693E-01
  4.674453E-01
  4.662739E-01
  4.692611E-01
  4.688828E-01
  4.715075E-01
  4.696598E-01
  4.703479E-01
  4.665741E-01
  4.655657E-01
  4.608709E-01
  4.607164E-01
  4.594099E-01
  4.644235E-01
  4.676811E-01
  4.739283E-01
  4.739494E-01
  4.743018E-01
  4.693077E-01
  4.682295E-01
  4.653176E-01
  4.673092E-01
  4.658126E-01
  4.667794E-01
  4.664125E-01
  4.690479E-01
  4.675943E-01
  4.678292E-01
  4.662706E-01
  4.680023E-01
  4.677958E-01
  4.694272E-01
  4.675528E-01
  4.668285E-01
  4.631251E-01
  4.620237E-01
  4.597741E-01
  4.616673E-01
  4.630954E-01
  4.681478E-01
  4.712601E-01
  4.763921E-01
  4.783360E-01
  4.811729E-01
  4.791856E-01
  4.763544E-01
  4.683731E-01
  4.619705E-01
  4.552976E-01
  4.550347E-01
  4.564542E-01
  4.619006E-01
  4.636259E-01
  4.646099E-01
  4.610503E-01
  4.602563E-01
  4.598181E-01
  4.646452E-01
  4.682016E-01
  4.725133E-01
  4.712574E-01
  4.695888E-01
  4.648256E-01
  4.637451E-01
  4.626460E-01
  4.658463E-01
  4.675001E-01
  4.710403E-01
  4.709568E-01
  4.717416E-01
  4.689508E-01
  4.677976E-01
  4.641692E-01
  4.633160E-01
  4.610302E-01
  4.622205E-01
  4.621167E-01
  4.649612E-01
  4.655333E-01
  4.680185E-01
  4.672904E-01
  4.676632E-01
  4.643093E-01
  4.624555E-01
  4.587348E-01
  4.592592E-01
  4.599141E-01
  4.644577E-01
  4.790773E-01
  4.772755E-01
  4.724261E-01
  4.690231E-01
  4.665156E-01
  4.665790E-01
  4.663206E-01
  4.667859E-01
  4.658267E-01
  4.655211E-01
  4.642599E-01
  4.641340E-01
  4.634584E-01
  4.644044E-01
  4.654012E-01
  4.685108E-01
  4.717197E-01
  4.763703E-01
  4.795530E-01
  4.818729E-01
  4.802887E-01
  4.764384E-01
  4.694203E-01
  4.631092E-01
  4.575442E-01
  4.555269E-01
  4.548996E-01
  4.565858E-01
  4.579293E-01
  4.606548E-01
  4.630706E-01
  4.668784E-01
  4.692885E-01
  4.710580E-01
  4.698711E-01
  4.684001E-01
  4.662103E-01
  4.662089E-01
  4.664038E-01
  4.678674E-01
  4.681543E-01
  4.693673E-01
  4.701200E-01
  4.722030E-01
  4.726928E-01
  4.722332E-01
  4.685310E-01
  4.644221E-01
  4.597794E-01
  4.581599E-01
  4.585897E-01
  4.627927E-01
  4.676116E-01
  4.727641E-01
  4.740323E-01
  4.719324E-01
  4.650293E-01
  4.575920E-01
  4.510221E-01
  4.498911E-01
  4.532491E-01
  4.616855E-01
  4.702943E-01
  4.774630E-01
  4.812694E-01
  4.809954E-01
  4.763089E-01
  4.698639E-01
  4.656390E-01
  4.646447E-01
  4.667266E-01
  4.691183E-01
  4.702010E-01
  4.684852E-01
  4.653544E-01
  4.621694E-01
  4.613910E-01
  4.632059E-01
  4.673753E-01
  4.714045E-01
  4.741419E-01
  4.746936E-01
  4.747468E-01
  4.748951E-01
  4.755154E-01
  4.744149E-01
  4.706666E-01
  4.640134E-01
  4.573802E-01
  4.529506E-01
  4.525266E-01
  4.545368E-01
  4.573178E-01
  4.587414E-01
  4.597402E-01
  4.614616E-01
  4.657167E-01
  4.712491E-01
  4.762462E-01
  4.776298E-01
  4.751826E-01
  4.697655E-01
  4.646094E-01
  4.613916E-01
  4.615630E-01
  4.640387E-01
  4.679601E-01
  4.709542E-01
  4.720319E-01
  4.699018E-01
  4.657329E-01
  4.606986E-01
  4.575455E-01
  4.573291E-01
  4.609090E-01
  4.663719E-01
  4.717123E-01
  4.737715E-01
  4.720312E-01
  4.668440E-01
  4.609232E-01
  4.555701E-01
  4.523058E-01
  4.510666E-01
  4.531181E-01
  4.585007E-01
  4.671109E-01
  4.757084E-01
  4.882626E-01
  4.830030E-01
  4.768810E-01
  4.684648E-01
  4.650058E-01
  4.620678E-01
  4.635178E-01
  4.631342E-01
  4.647974E-01
  4.633972E-01
  4.641644E-01
  4.628626E-01
  4.647949E-01
  4.650688E-01
  4.679514E-01
  4.677980E-01
  4.691399E-01
  4.674903E-01
  4.685484E-01
  4.679569E-01
  4.702457E-01
  4.695408E-01
  4.698197E-01
  4.661637E-01
  4.643155E-01
  4.604497E-01
  4.599908E-01
  4.582073E-01
  4.600572E-01
  4.610695E-01
  4.663087E-01
  4.702548E-01
  4.760295E-01
  4.767229E-01
  4.763428E-01
  4.709714E-01
  4.677393E-01
  4.635780E-01
  4.637516E-01
  4.627542E-01
  4.648533E-01
  4.652675E-01
  4.689691E-01
  4.703072E-01
  4.724140E-01
  4.688726E-01
  4.647577E-01
  4.573221E-01
  4.543010E-01
  4.529898E-01
  4.585803E-01
  4.647738E-01
  4.735475E-01
  4.768807E-01
  4.777051E-01
  4.711850E-01
  4.642566E-01
  4.551274E-01
  4.516157E-01
  4.508420E-01
  4.579676E-01
  4.666778E-01
  4.786526E-01
  4.851326E-01
  4.810390E-01
  4.774495E-01
  4.754639E-01
  4.663293E-01
  4.640739E-01
  4.593786E-01
  4.628881E-01
  4.618670E-01
  4.653983E-01
  4.617068E-01
  4.625595E-01
  4.586845E-01
  4.624278E-01
  4.627685E-01
  4.689982E-01
  4.676815E-01
  4.685680E-01
  4.616504E-01
  4.607816E-01
  4.575669E-01
  4.633162E-01
  4.649453E-01
  4.704593E-01
  4.672911E-01
  4.675164E-01
  4.624607E-01
  4.647344E-01
  4.630258E-01
  4.668982E-01
  4.644539E-01
  4.673967E-01
  4.662399E-01
  4.726860E-01
  4.744182E-01
  4.800023E-01
  4.762353E-01
  4.741308E-01
  4.645654E-01
  4.613814E-01
  4.557772E-01
  4.594275E-01
  4.606480E-01
  4.685417E-01
  4.696584E-01
  4.730069E-01
  4.668674E-01
  4.636524E-01
  4.550172E-01
  4.546073E-01
  4.529663E-01
  4.605482E-01
  4.642673E-01
  4.721702E-01
  4.711462E-01
  4.723653E-01
  4.667001E-01
  4.673710E-01
  4.640568E-01
  4.669919E-01
  4.642608E-01
  4.672141E-01
  4.661698E-01
  4.728749E-01
  4.750450E-01
  4.787262E-01
  4.718538E-01
  4.723273E-01
  4.640568E-01
  4.650352E-01
  4.583874E-01
  4.609870E-01
  4.555955E-01
  4.592615E-01
  4.552165E-01
  4.607500E-01
  4.588773E-01
  4.661730E-01
  4.645412E-01
  4.697913E-01
  4.639342E-01
  4.645372E-01
  4.561256E-01
  4.577828E-01
  4.538023E-01
  4.610687E-01
  4.613379E-01
  4.699855E-01
  4.687160E-01
  4.744881E-01
  4.704569E-01
  4.741996E-01
  4.688791E-01
  4.723656E-01
  4.685078E-01
  4.750992E-01
  4.742638E-01
  4.811511E-01
  4.763387E-01
  4.765017E-01
  4.660002E-01
  4.647868E-01
  4.576647E-01
  4.618607E-01
  4.593809E-01
  4.663783E-01
  4.655351E-01
  4.736114E-01
  4.721730E-01
  4.765573E-01
  4.684463E-01
  4.661004E-01
  4.551061E-01
  4.553137E-01
  4.511697E-01
  4.591373E-01
  4.604786E-01
  4.701467E-01
  4.696139E-01
  4.757889E-01
  4.720209E-01
  4.762167E-01
  4.715729E-01
  4.754702E-01
  4.709002E-01
  4.755221E-01
  4.723863E-01
  4.783080E-01
  4.750328E-01
  4.667816E-01
  4.650874E-01
  4.705048E-01
  4.647053E-01
  4.666780E-01
  4.601570E-01
  4.635899E-01
  4.588556E-01
  4.628499E-01
  4.575225E-01
  4.611710E-01
  4.572239E-01
  4.640355E-01
  4.632386E-01
  4.706439E-01
  4.662484E-01
  4.671862E-01
  4.572826E-01
  4.574117E-01
  4.524840E-01
  4.604334E-01
  4.615771E-01
  4.707571E-01
  4.685536E-01
  4.733876E-01
  4.690899E-01
  4.744931E-01
  4.711339E-01
  4.756125E-01
  4.696412E-01
  4.722031E-01
  4.671272E-01
  4.728960E-01
  4.705624E-01
  4.759721E-01
  4.697332E-01
  4.698680E-01
  4.602934E-01
  4.610995E-01
  4.563410E-01
  4.640979E-01
  4.655860E-01
  4.762863E-01
  4.756087E-01
  4.796279E-01
  4.705030E-01
  4.683346E-01
  4.582269E-01
  4.600227E-01