# vtk DataFile Version 2.0
title
ASCII
DATASET STRUCTURED_GRID
DIMENSIONS   64   64    1
POINTS   4096  float
  0.000000E+00  0.000000E+00  0.000000E+00
  0.000000E+00  3.906250E-01  0.000000E+00
  0.000000E+00  7.812500E-01  0.000000E+00
  0.000000E+00  1.171875E+00  0.000000E+00
  0.000000E+00  1.562500E+00  0.000000E+00
  0.000000E+00  1.953125E+00  0.000000E+00
  0.000000E+00  2.343750E+00  0.000000E+00
  0.000000E+00  2.734375E+00  0.000000E+00
  0.000000E+00  3.125000E+00  0.000000E+00
  0.000000E+00  3.515625E+00  0.000000E+00
  0.000000E+00  3.906250E+00  0.000000E+00
  0.000000E+00  4.296875E+00  0.000000E+00
  0.000000E+00  4.687500E+00  0.000000E+00
  0.000000E+00  5.078125E+00  0.000000E+00
  0.000000E+00  5.468750E+00  0.000000E+00
  0.000000E+00  5.859375E+00  0.000000E+00
  0.000000E+00  6.250000E+00  0.000000E+00
  0.000000E+00  6.640625E+00  0.000000E+00
  0.000000E+00  7.031250E+00  0.000000E+00
  0.000000E+00  7.421875E+00  0.000000E+00
  0.000000E+00  7.812500E+00  0.000000E+00
  0.000000E+00  8.203125E+00  0.000000E+00
  0.000000E+00  8.593750E+00  0.000000E+00
  0.000000E+00  8.984375E+00  0.000000E+00
  0.000000E+00  9.375000E+00  0.000000E+00
  0.000000E+00  9.765625E+00  0.000000E+00
  0.000000E+00  1.015625E+01  0.000000E+00
  0.000000E+00  1.054688E+01  0.000000E+00
  0.000000E+00  1.093750E+01  0.000000E+00
  0.000000E+00  1.132812E+01  0.000000E+00
  0.000000E+00  1.171875E+01  0.000000E+00
  0.000000E+00  1.210938E+01  0.000000E+00
  0.000000E+00  1.250000E+01  0.000000E+00
  0.000000E+00  1.289062E+01  0.000000E+00
  0.000000E+00  1.328125E+01  0.000000E+00
  0.000000E+00  1.367188E+01  0.000000E+00
  0.000000E+00  1.406250E+01  0.000000E+00
  0.000000E+00  1.445312E+01  0.000000E+00
  0.000000E+00  1.484375E+01  0.000000E+00
  0.000000E+00  1.523438E+01  0.000000E+00
  0.000000E+00  1.562500E+01  0.000000E+00
  0.000000E+00  1.601562E+01  0.000000E+00
  0.000000E+00  1.640625E+01  0.000000E+00
  0.000000E+00  1.679688E+01  0.000000E+00
  0.000000E+00  1.718750E+01  0.000000E+00
  0.000000E+00  1.757812E+01  0.000000E+00
  0.000000E+00  1.796875E+01  0.000000E+00
  0.000000E+00  1.835938E+01  0.000000E+00
  0.000000E+00  1.875000E+01  0.000000E+00
  0.000000E+00  1.914062E+01  0.000000E+00
  0.000000E+00  1.953125E+01  0.000000E+00
  0.000000E+00  1.992188E+01  0.000000E+00
  0.000000E+00  2.031250E+01  0.000000E+00
  0.000000E+00  2.070312E+01  0.000000E+00
  0.000000E+00  2.109375E+01  0.000000E+00
  0.000000E+00  2.148438E+01  0.000000E+00
  0.000000E+00  2.187500E+01  0.000000E+00
  0.000000E+00  2.226562E+01  0.000000E+00
  0.000000E+00  2.265625E+01  0.000000E+00
  0.000000E+00  2.304688E+01  0.000000E+00
  0.000000E+00  2.343750E+01  0.000000E+00
  0.000000E+00  2.382812E+01  0.000000E+00
  0.000000E+00  2.421875E+01  0.000000E+00
  0.000000E+00  2.460938E+01  0.000000E+00
  3.906250E-01  0.000000E+00  0.000000E+00
  3.906250E-01  3.906250E-01  0.000000E+00
  3.906250E-01  7.812500E-01  0.000000E+00
  3.906250E-01  1.171875E+00  0.000000E+00
  3.906250E-01  1.562500E+00  0.000000E+00
  3.906250E-01  1.953125E+00  0.000000E+00
  3.906250E-01  2.343750E+00  0.000000E+00
  3.906250E-01  2.734375E+00  0.000000E+00
  3.906250E-01  3.125000E+00  0.000000E+00
  3.906250E-01  3.515625E+00  0.000000E+00
  3.906250E-01  3.906250E+00  0.000000E+00
  3.906250E-01  4.296875E+00  0.000000E+00
  3.906250E-01  4.687500E+00  0.000000E+00
  3.906250E-01  5.078125E+00  0.000000E+00
  3.906250E-01  5.468750E+00  0.000000E+00
  3.906250E-01  5.859375E+00  0.000000E+00
  3.906250E-01  6.250000E+00  0.000000E+00
  3.906250E-01  6.640625E+00  0.000000E+00
  3.906250E-01  7.031250E+00  0.000000E+00
  3.906250E-01  7.421875E+00  0.000000E+00
  3.906250E-01  7.812500E+00  0.000000E+00
  3.906250E-01  8.203125E+00  0.000000E+00
  3.906250E-01  8.593750E+00  0.000000E+00
  3.906250E-01  8.984375E+00  0.000000E+00
  3.906250E-01  9.375000E+00  0.000000E+00
  3.906250E-01  9.765625E+00  0.000000E+00
  3.906250E-01  1.015625E+01  0.000000E+00
  3.906250E-01  1.054688E+01  0.000000E+00
  3.906250E-01  1.093750E+01  0.000000E+00
  3.906250E-01  1.132812E+01  0.000000E+00
  3.906250E-01  1.171875E+01  0.000000E+00
  3.906250E-01  1.210938E+01  0.000000E+00
  3.906250E-01  1.250000E+01  0.000000E+00
  3.906250E-01  1.289062E+01  0.000000E+00
  3.906250E-01  1.328125E+01  0.000000E+00
  3.906250E-01  1.367188E+01  0.000000E+00
  3.906250E-01  1.406250E+01  0.000000E+00
  3.906250E-01  1.445312E+01  0.000000E+00
  3.906250E-01  1.484375E+01  0.000000E+00
  3.906250E-01  1.523438E+01  0.000000E+00
  3.906250E-01  1.562500E+01  0.000000E+00
  3.906250E-01  1.601562E+01  0.000000E+00
  3.906250E-01  1.640625E+01  0.000000E+00
  3.906250E-01  1.679688E+01  0.000000E+00
  3.906250E-01  1.718750E+01  0.000000E+00
  3.906250E-01  1.757812E+01  0.000000E+00
  3.906250E-01  1.796875E+01  0.000000E+00
  3.906250E-01  1.835938E+01  0.000000E+00
  3.906250E-01  1.875000E+01  0.000000E+00
  3.906250E-01  1.914062E+01  0.000000E+00
  3.906250E-01  1.953125E+01  0.000000E+00
  3.906250E-01  1.992188E+01  0.000000E+00
  3.906250E-01  2.031250E+01  0.000000E+00
  3.906250E-01  2.070312E+01  0.000000E+00
  3.906250E-01  2.109375E+01  0.000000E+00
  3.906250E-01  2.148438E+01  0.000000E+00
  3.906250E-01  2.187500E+01  0.000000E+00
  3.906250E-01  2.226562E+01  0.000000E+00
  3.906250E-01  2.265625E+01  0.000000E+00
  3.906250E-01  2.304688E+01  0.000000E+00
  3.906250E-01  2.343750E+01  0.000000E+00
  3.906250E-01  2.382812E+01  0.000000E+00
  3.906250E-01  2.421875E+01  0.000000E+00
  3.906250E-01  2.460938E+01  0.000000E+00
  7.812500E-01  0.000000E+00  0.000000E+00
  7.812500E-01  3.906250E-01  0.000000E+00
  7.812500E-01  7.812500E-01  0.000000E+00
  7.812500E-01  1.171875E+00  0.000000E+00
  7.812500E-01  1.562500E+00  0.000000E+00
  7.812500E-01  1.953125E+00  0.000000E+00
  7.812500E-01  2.343750E+00  0.000000E+00
  7.812500E-01  2.734375E+00  0.000000E+00
  7.812500E-01  3.125000E+00  0.000000E+00
  7.812500E-01  3.515625E+00  0.000000E+00
  7.812500E-01  3.906250E+00  0.000000E+00
  7.812500E-01  4.296875E+00  0.000000E+00
  7.812500E-01  4.687500E+00  0.000000E+00
  7.812500E-01  5.078125E+00  0.000000E+00
  7.812500E-01  5.468750E+00  0.000000E+00
  7.812500E-01  5.859375E+00  0.000000E+00
  7.812500E-01  6.250000E+00  0.000000E+00
  7.812500E-01  6.640625E+00  0.000000E+00
  7.812500E-01  7.031250E+00  0.000000E+00
  7.812500E-01  7.421875E+00  0.000000E+00
  7.812500E-01  7.812500E+00  0.000000E+00
  7.812500E-01  8.203125E+00  0.000000E+00
  7.812500E-01  8.593750E+00  0.000000E+00
  7.812500E-01  8.984375E+00  0.000000E+00
  7.812500E-01  9.375000E+00  0.000000E+00
  7.812500E-01  9.765625E+00  0.000000E+00
  7.812500E-01  1.015625E+01  0.000000E+00
  7.812500E-01  1.054688E+01  0.000000E+00
  7.812500E-01  1.093750E+01  0.000000E+00
  7.812500E-01  1.132812E+01  0.000000E+00
  7.812500E-01  1.171875E+01  0.000000E+00
  7.812500E-01  1.210938E+01  0.000000E+00
  7.812500E-01  1.250000E+01  0.000000E+00
  7.812500E-01  1.289062E+01  0.000000E+00
  7.812500E-01  1.328125E+01  0.000000E+00
  7.812500E-01  1.367188E+01  0.000000E+00
  7.812500E-01  1.406250E+01  0.000000E+00
  7.812500E-01  1.445312E+01  0.000000E+00
  7.812500E-01  1.484375E+01  0.000000E+00
  7.812500E-01  1.523438E+01  0.000000E+00
  7.812500E-01  1.562500E+01  0.000000E+00
  7.812500E-01  1.601562E+01  0.000000E+00
  7.812500E-01  1.640625E+01  0.000000E+00
  7.812500E-01  1.679688E+01  0.000000E+00
  7.812500E-01  1.718750E+01  0.000000E+00
  7.812500E-01  1.757812E+01  0.000000E+00
  7.812500E-01  1.796875E+01  0.000000E+00
  7.812500E-01  1.835938E+01  0.000000E+00
  7.812500E-01  1.875000E+01  0.000000E+00
  7.812500E-01  1.914062E+01  0.000000E+00
  7.812500E-01  1.953125E+01  0.000000E+00
  7.812500E-01  1.992188E+01  0.000000E+00
  7.812500E-01  2.031250E+01  0.000000E+00
  7.812500E-01  2.070312E+01  0.000000E+00
  7.812500E-01  2.109375E+01  0.000000E+00
  7.812500E-01  2.148438E+01  0.000000E+00
  7.812500E-01  2.187500E+01  0.000000E+00
  7.812500E-01  2.226562E+01  0.000000E+00
  7.812500E-01  2.265625E+01  0.000000E+00
  7.812500E-01  2.304688E+01  0.000000E+00
  7.812500E-01  2.343750E+01  0.000000E+00
  7.812500E-01  2.382812E+01  0.000000E+00
  7.812500E-01  2.421875E+01  0.000000E+00
  7.812500E-01  2.460938E+01  0.000000E+00
  1.171875E+00  0.000000E+00  0.000000E+00
  1.171875E+00  3.906250E-01  0.000000E+00
  1.171875E+00  7.812500E-01  0.000000E+00
  1.171875E+00  1.171875E+00  0.000000E+00
  1.171875E+00  1.562500E+00  0.000000E+00
  1.171875E+00  1.953125E+00  0.000000E+00
  1.171875E+00  2.343750E+00  0.000000E+00
  1.171875E+00  2.734375E+00  0.000000E+00
  1.171875E+00  3.125000E+00  0.000000E+00
  1.171875E+00  3.515625E+00  0.000000E+00
  1.171875E+00  3.906250E+00  0.000000E+00
  1.171875E+00  4.296875E+00  0.000000E+00
  1.171875E+00  4.687500E+00  0.000000E+00
  1.171875E+00  5.078125E+00  0.000000E+00
  1.171875E+00  5.468750E+00  0.000000E+00
  1.171875E+00  5.859375E+00  0.000000E+00
  1.171875E+00  6.250000E+00  0.000000E+00
  1.171875E+00  6.640625E+00  0.000000E+00
  1.171875E+00  7.031250E+00  0.000000E+00
  1.171875E+00  7.421875E+00  0.000000E+00
  1.171875E+00  7.812500E+00  0.000000E+00
  1.171875E+00  8.203125E+00  0.000000E+00
  1.171875E+00  8.593750E+00  0.000000E+00
  1.171875E+00  8.984375E+00  0.000000E+00
  1.171875E+00  9.375000E+00  0.000000E+00
  1.171875E+00  9.765625E+00  0.000000E+00
  1.171875E+00  1.015625E+01  0.000000E+00
  1.171875E+00  1.054688E+01  0.000000E+00
  1.171875E+00  1.093750E+01  0.000000E+00
  1.171875E+00  1.132812E+01  0.000000E+00
  1.171875E+00  1.171875E+01  0.000000E+00
  1.171875E+00  1.210938E+01  0.000000E+00
  1.171875E+00  1.250000E+01  0.000000E+00
  1.171875E+00  1.289062E+01  0.000000E+00
  1.171875E+00  1.328125E+01  0.000000E+00
  1.171875E+00  1.367188E+01  0.000000E+00
  1.171875E+00  1.406250E+01  0.000000E+00
  1.171875E+00  1.445312E+01  0.000000E+00
[...]
POINT_DATA   4096
SCALARS CON  float  1
LOOKUP_TABLE default
  4.713351E-01
  4.740517E-01
  4.830419E-01
  4.782776E-01
  4.783738E-01
  4.690376E-01
  4.714152E-01
  4.689230E-01
  4.771630E-01
  4.751201E-01
  4.782636E-01
  4.693639E-01
  4.688310E-01
  4.619901E-01
  4.676937E-01
  4.674551E-01
  4.763495E-01
  4.742597E-01
  4.778889E-01
  4.703007E-01
  4.708288E-01
  4.629629E-01
  4.644301E-01
  4.574592E-01
  4.599160E-01
  4.555068E-01
  4.627825E-01
  4.640253E-01
  4.746563E-01
  4.741298E-01
  4.785227E-01
  4.711237E-01
  4.725060E-01
  4.673843E-01
  4.734919E-01
  4.711278E-01
  4.754945E-01
  4.681560E-01
  4.680749E-01
  4.597250E-01
  4.618294E-01
  4.564936E-01
  4.600185E-01
  4.542794E-01
  4.575750E-01
  4.545439E-01
  4.643799E-01
  4.692354E-01
  4.831663E-01
  4.832206E-01
  4.840296E-01
  4.695769E-01
  4.636163E-01
  4.549638E-01
  4.642377E-01
  4.724545E-01
  4.912086E-01
  4.953379E-01
  4.987201E-01
  4.849998E-01
  4.773784E-01
  4.633890E-01
  4.635945E-01
  4.609389E-01
  4.724594E-01
  4.770062E-01
  4.873552E-01
  4.852888E-01
  4.842315E-01
  4.724223E-01
  4.690075E-01
  4.630478E-01
  4.691755E-01
  4.706233E-01
  4.782973E-01
  4.753860E-01
  4.762829E-01
  4.684870E-01
  4.688750E-01
  4.647655E-01
  4.704486E-01
  4.699056E-01
  4.752435E-01
  4.706679E-01
  4.710276E-01
  4.637223E-01
  4.648449E-01
  4.606743E-01
  4.648804E-01
  4.622824E-01
  4.669016E-01
  4.649308E-01
  4.711598E-01
  4.708584E-01
  4.771257E-01
  4.741347E-01
  4.758257E-01
  4.685659E-01
  4.683564E-01
  4.623860E-01
  4.656126E-01
  4.630878E-01
  4.676652E-01
  4.635590E-01
  4.645380E-01
  4.568901E-01
  4.562116E-01
  4.497111E-01
  4.527940E-01
  4.522893E-01
  4.627204E-01
  4.686807E-01
  4.810480E-01
  4.809261E-01
  4.807000E-01
  4.684985E-01
  4.649134E-01
  4.612433E-01
  4.733312E-01
  4.833607E-01
  4.986022E-01
  4.980928E-01
  4.953062E-01
  4.799462E-01
  4.724919E-01
  4.620928E-01
  4.637502E-01
  4.627033E-01
  4.633111E-01
  4.762818E-01
  4.883255E-01
  4.898624E-01
  4.846535E-01
  4.729123E-01
  4.652510E-01
  4.612317E-01
  4.651250E-01
  4.697722E-01
  4.758111E-01
  4.763961E-01
  4.756395E-01
  4.709902E-01
  4.690627E-01
  4.669115E-01
  4.687291E-01
  4.691364E-01
  4.712854E-01
  4.702655E-01
  4.705045E-01
  4.681333E-01
  4.677479E-01
  4.651275E-01
  4.647164E-01
  4.626820E-01
  4.638275E-01
  4.639049E-01
  4.664512E-01
  4.660256E-01
  4.663510E-01
  4.636644E-01
  4.636088E-01
  4.629559E-01
  4.659356E-01
  4.670219E-01
  4.690389E-01
  4.669911E-01
  4.655218E-01
  4.611050E-01
  4.586385E-01
  4.541794E-01
  4.523378E-01
  4.495247E-01
  4.510391E-01
  4.536972E-01
  4.619628E-01
  4.701118E-01
  4.791133E-01
  4.809001E-01
  4.783170E-01
  4.693621E-01
  4.635012E-01
  4.613884E-01
  4.693731E-01
  4.809358E-01
  4.942313E-01
  4.980085E-01
  4.935563E-01
  4.789955E-01
  4.646321E-01
  4.518528E-01
  4.484362E-01
  4.512601E-01
  4.636484E-01
  4.773919E-01
  4.850242E-01
  4.897782E-01
  4.809238E-01
  4.706110E-01
  4.567203E-01
  4.530718E-01
  4.529752E-01
  4.629943E-01
  4.703575E-01
  4.789412E-01
  4.774878E-01
  4.753454E-01
  4.671435E-01
  4.651424E-01
  4.628431E-01
  4.682812E-01
  4.704400E-01
  4.751797E-01
  4.727586E-01
  4.727632E-01
  4.684548E-01
  4.694969E-01
  4.668834E-01
  4.680213E-01
  4.638396E-01
  4.636925E-01
  4.605734E-01
  4.638740E-01
  4.643504E-01
  4.685319E-01
  4.660216E-01
  4.652052E-01
  4.593063E-01
  4.594007E-01
  4.584682E-01
  4.642900E-01
  4.657541E-01
  4.687570E-01
  4.638789E-01
  4.612139E-01
  4.549332E-01
  4.556496E-01
  4.554616E-01
  4.621265E-01
  4.657684E-01
  4.733271E-01
  4.743313E-01
  4.758146E-01
  4.691695E-01
  4.654305E-01
  4.599803E-01
  4.644099E-01
  4.703253E-01
  4.827248E-01
  4.873679E-01
  4.887562E-01
  4.784646E-01
  4.693176E-01
  4.574070E-01
  4.538722E-01
  4.508989E-01
  4.570229E-01
  4.584425E-01
  4.756311E-01
  4.803133E-01
  4.865153E-01
  4.741784E-01
  4.668634E-01
  4.518718E-01
  4.523254E-01
  4.502579E-01
  4.621164E-01
  4.654115E-01
  4.754598E-01
  4.714527E-01
  4.733873E-01
  4.648577E-01
  4.674435E-01
  4.633917E-01
  4.711474E-01
  4.701907E-01
  4.777370E-01
  4.735522E-01
  4.766945E-01
  4.687814E-01
  4.697691E-01
  4.614439E-01
  4.633570E-01
  4.570534E-01
  4.615212E-01
  4.575915E-01
  4.634333E-01
  4.595218E-01
  4.644823E-01
  4.596381E-01
  4.645539E-01
  4.608455E-01
  4.673849E-01
  4.645926E-01
  4.704829E-01
  4.653880E-01
  4.681745E-01
  4.605264E-01
  4.627301E-01
  4.572180E-01
  4.634613E-01
  4.622139E-01
  4.712011E-01
  4.700473E-01
  4.766971E-01
  4.714482E-01
  4.732749E-01
  4.637336E-01
  4.633182E-01
  4.552618E-01
  4.602698E-01
  4.601281E-01
  4.721745E-01
  4.740523E-01
  4.812360E-01
  4.729476E-01
  4.695543E-01
  4.552106E-01
  4.523347E-01
  4.449929E-01
  4.534018E-01
  4.645085E-01
  4.756943E-01
  4.752252E-01
  4.810023E-01
  4.693959E-01
  4.642596E-01
  4.488710E-01
  4.490137E-01
  4.454460E-01
  4.581569E-01
  4.622602E-01
  4.746890E-01
  4.709198E-01
  4.729911E-01
  4.625357E-01
  4.650862E-01
  4.615443E-01
  4.727631E-01
  4.740445E-01
  4.832458E-01
  4.767524E-01
  4.774204E-01
  4.663586E-01
  4.674277E-01
  4.595216E-01
  4.632115E-01
  4.563966E-01
  4.609481E-01
  4.567932E-01
  4.659986E-01
  4.659865E-01
  4.754948E-01
  4.703807E-01
  4.720627E-01
  4.615224E-01
  4.638945E-01
  4.597730E-01
  4.696125E-01
  4.686214E-01
  4.753463E-01
  4.677658E-01
  4.699093E-01
  4.634310E-01
  4.712474E-01
  4.705621E-01
  4.799919E-01
  4.754255E-01
  4.781126E-01
  4.675993E-01
  4.672460E-01
  4.568958E-01
  4.590981E-01
  4.533837E-01
  4.613467E-01
  4.606409E-01
  4.703937E-01
  4.667436E-01
  4.705302E-01
  4.615945E-01
  4.638233E-01
  4.570799E-01
  4.625937E-01
  4.583210E-01
  4.658072E-01
  4.626644E-01
  4.717240E-01
  4.716711E-01
  4.758793E-01
  4.673159E-01
  4.642605E-01
  4.541324E-01
  4.556679E-01
  4.536284E-01
  4.625352E-01
  4.638243E-01
  4.709929E-01
  4.667871E-01
  4.684523E-01
  4.623364E-01
  4.667880E-01
  4.664805E-01
  4.763362E-01
  4.776895E-01
  4.841181E-01
  4.780142E-01
  4.764020E-01
  4.651107E-01
  4.624997E-01
  4.540110E-01
  4.562753E-01
  4.532458E-01
  4.602348E-01
  4.602992E-01
  4.683782E-01
  4.674838E-01
  4.732278E-01
  4.695522E-01
  4.734350E-01
  4.696866E-01
  4.748472E-01
  4.721677E-01
  4.766101E-01
  4.711101E-01
  4.720730E-01
  4.648073E-01
  4.674663E-01
  4.652083E-01
  4.736536E-01
  4.745639E-01
  4.814725E-01
  4.765680E-01
  4.765777E-01
  4.671353E-01
  4.662747E-01
  4.587539E-01
  4.605770E-01
  4.554584E-01
  4.593093E-01
  4.562369E-01
  4.621236E-01
  4.604308E-01
  4.664855E-01
  4.635292E-01
  4.673204E-01
  4.618793E-01
  4.639282E-01
  4.586010E-01
  4.633038E-01
  4.675212E-01
  4.685068E-01
  4.683686E-01
  4.713714E-01
  4.692156E-01
  4.673086E-01
  4.612811E-01
  4.598560E-01
  4.590323E-01
  4.646100E-01
  4.683233E-01
  4.730414E-01
  4.708496E-01
  4.685778E-01
  4.632480E-01
  4.642610E-01
  4.672322E-01
  4.766697E-01
  4.824261E-01
  4.862309E-01
  4.804040E-01
  4.732845E-01
  4.630423E-01
  4.589952E-01
  4.559428E-01
  4.585873E-01
  4.593192E-01
  4.633834E-01
  4.652582E-01
  4.714700E-01
  4.753341E-01
  4.808115E-01
  4.798102E-01
  4.782890E-01
  4.724529E-01
  4.713940E-01
  4.705602E-01
  4.747260E-01
  4.749635E-01
  4.752988E-01
  4.703126E-01
  4.688001E-01
  4.673417E-01
  4.722345E-01
  4.751530E-01
  4.789491E-01
  4.758956E-01
  4.729737E-01
  4.664703E-01
  4.643084E-01
  4.610652E-01
  4.624222E-01
  4.619435E-01
  4.650791E-01
  4.649711E-01
  4.665211E-01
  4.633421E-01
  4.625133E-01
  4.600993E-01
  4.634622E-01
  4.659501E-01
  4.711716E-01
  4.709148E-01
  4.710521E-01
  4.610053E-01
  4.618791E-01
  4.656455E-01
  4.686795E-01
  4.716128E-01
  4.717181E-01
  4.717852E-01
  4.709057E-01
  4.720819E-01
  4.729100E-01
  4.743360E-01
  4.729018E-01
  4.705287E-01
  4.664340E-01
  4.650310E-01
  4.659142E-01
  4.713133E-01
  4.772466E-01
  4.827647E-01
  4.828863E-01
  4.789573E-01
  4.705457E-01
  4.629217E-01
  4.567661E-01
  4.557155E-01
  4.575729E-01
  4.630371E-01
  4.678030E-01
  4.721320E-01
  4.730994E-01
  4.733785E-01
  4.720765E-01
  4.726037E-01
  4.735459E-01
  4.768852E-01
  4.792701E-01
  4.810656E-01
  4.787652E-01
  4.746169E-01
  4.681445E-01
  4.639330E-01
  4.617088E-01
  4.638973E-01
  4.669861E-01
  4.709104E-01
  4.718221E-01
  4.716677E-01
  4.695120E-01
  4.689593E-01
  4.684131E-01
  4.694518E-01
  4.689671E-01
  4.686639E-01
  4.667220E-01
  4.660183E-01
  4.649894E-01
  4.659638E-01
  4.665938E-01
  4.685248E-01
  4.689063E-01
  4.691918E-01
  4.668972E-01
  4.646073E-01
  4.614422E-01
  4.613299E-01
  4.585679E-01
  4.623271E-01
  4.667821E-01
  4.736210E-01
  4.754712E-01
  4.764884E-01
  4.736831E-01
  4.740955E-01
  4.740289E-01
  4.770569E-01
  4.761866E-01
  4.746319E-01
  4.684465E-01
  4.650833E-01
  4.629392E-01
  4.680011E-01
  4.739584E-01
  4.813769E-01
  4.814072E-01
  4.775785E-01
  4.678710E-01
  4.616028E-01
  4.576197E-01
  4.612187E-01
  4.657637E-01
  4.727729E-01
  4.751618E-01
  4.771915E-01
  4.753940E-01
  4.758751E-01
  4.742717E-01
  4.747340E-01
  4.722723E-01
  4.722131E-01
  4.708561E-01
  4.730246E-01
  4.728036E-01
  4.732154E-01
  4.689858E-01
  4.660241E-01
  4.618332E-01
  4.625653E-01
  4.633004E-01
  4.670313E-01
  4.674813E-01
  4.690546E-01
  4.680199E-01
  4.699667E-01
  4.701039E-01
  4.722882E-01
  4.713886E-01
  4.725876E-01
  4.719569E-01
  4.741366E-01
  4.733917E-01
  4.734625E-01
  4.700305E-01
  4.694111E-01
  4.682739E-01
  4.708979E-01
  4.705452E-01
  4.699692E-01
  4.645603E-01
  4.536175E-01
  4.549656E-01
  4.599631E-01
  4.661514E-01
  4.726639E-01
  4.766492E-01
  4.785940E-01
  4.781164E-01
  4.775913E-01
  4.766094E-01
  4.759340E-01
  4.735917E-01
  4.703865E-01
  4.661722E-01
  4.638723E-01
  4.638891E-01
  4.674855E-01
  4.721182E-01
  4.763542E-01
  4.767139E-01
  4.735702E-01
  4.672918E-01
  4.618422E-01
  4.589027E-01
  4.610814E-01
  4.668281E-01
  4.746907E-01
  4.799176E-01
  4.808663E-01
  4.763113E-01
  4.698939E-01
  4.640601E-01
  4.625068E-01
  4.646575E-01
  4.700030E-01
  4.744814E-01
  4.763816E-01
  4.735018E-01
  4.681659E-01
  4.619208E-01
  4.583130E-01
  4.572251E-01
  4.590663E-01
  4.611962E-01
  4.634720E-01
  4.646346E-01
  4.665254E-01
  4.687520E-01
  4.721678E-01
  4.744057E-01
  4.752131E-01
  4.732206E-01
  4.707344E-01
  4.685548E-01
  4.691680E-01
  4.715287E-01
  4.755187E-01
  4.782460E-01
  4.793205E-01
  4.769994E-01
  4.726719E-01
  4.662353E-01
  4.602437E-01
  4.552194E-01
  4.566646E-01
  4.565145E-01
  4.585020E-01
  4.656018E-01
  4.708120E-01
  4.753503E-01
  4.741204E-01
  4.727596E-01
  4.696855E-01
  4.705769E-01
  4.707635E-01
  4.723550E-01
  4.695203E-01
  4.665338E-01
  4.613805E-01
  4.608816E-01
  4.624364E-01
  4.691817E-01
  4.738092E-01
  4.769040E-01
  4.729074E-01
  4.678192E-01
  4.613741E-01
  4.610458E-01
  4.637279E-01
  4.717755E-01
  4.776324E-01
  4.821976E-01
  4.801404E-01
  4.769699E-01
  4.710241E-01
  4.682260E-01
  4.648414E-01
  4.646085E-01
  4.631670E-01
  4.646149E-01
  4.646163E-01
  4.665428E-01
  4.654011E-01
  4.650453E-01
  4.620572E-01
  4.617233E-01
  4.607306E-01
  4.630431E-01
  4.638161E-01
  4.666078E-01
  4.673512E-01
  4.703513E-01
  4.710571E-01
  4.725536E-01
  4.700513E-01
  4.684697E-01
  4.657341E-01
  4.677856E-01
  4.706217E-01
  4.764974E-01
  4.787821E-01
  4.803267E-01
  4.775843E-01
  4.762076E-01
  4.728136E-01
  4.710429E-01
  4.659500E-01
  4.619290E-01
  4.543530E-01
  4.579764E-01
  4.596790E-01
  4.659059E-01
  4.681074E-01
  4.725573E-01
  4.712794E-01
  4.721260E-01
  4.686412E-01
  4.690304E-01
  4.659643E-01
  4.664449E-01
  4.628162E-01
  4.629212E-01
  4.603480E-01
  4.633049E-01
  4.645120E-01
  4.705570E-01
  4.725224E-01
  4.761474E-01
  4.728984E-01
  4.705585E-01
  4.634737E-01
  4.616173E-01
  4.597715E-01
  4.658177E-01
  4.705536E-01
  4.778222E-01
  4.768870E-01
  4.744776E-01
  4.654729E-01
  4.611307E-01
  4.569818E-01
  4.609304E-01
  4.637581E-01
  4.697761E-01
  4.691001E-01
  4.687238E-01
  4.628595E-01
  4.612915E-01
  4.582152E-01
  4.610892E-01
  4.614789E-01
  4.655090E-01
  4.652005E-01
  4.682245E-01
  4.677151E-01
  4.711371E-01
  4.703067E-01
  4.716033E-01
  4.671919E-01
  4.653632E-01
  4.605593E-01
  4.620097E-01
  4.631847E-01
  4.707741E-01
  4.753098E-01
  4.816855E-01
  4.805490E-01
  4.790619E-01
  4.710015E-01
  4.659114E-01
  4.583243E-01
  4.568160E-01
  4.635156E-01
  4.639335E-01
  4.626019E-01
  4.663393E-01
  4.671061E-01
  4.699685E-01
  4.673524E-01
  4.667651E-01
  4.630111E-01
  4.640049E-01
  4.628732E-01
  4.652367E-01
  4.632539E-01
  4.636341E-01
  4.607899E-01
  4.630970E-01
  4.647806E-01
  4.719970E-01
  4.757904E-01
  4.802538E-01
  4.769457E-01
  4.733379E-01
  4.652129E-01
  4.623681E-01
  4.598107E-01
  4.639885E-01
  4.662541E-01
  4.710155E-01
  4.701154E-01
  4.706269E-01
  4.670539E-01
  4.672256E-01
  4.644986E-01
  4.652122E-01
  4.624667E-01
  4.634289E-01
  4.618947E-01
  4.646701E-01
  4.643828E-01
  4.670347E-01
  4.656443E-01
  4.674422E-01
  4.663133E-01
  4.691819E-01
  4.688054E-01
  4.713005E-01
  4.695083E-01
  4.701859E-01
  4.666025E-01
  4.656559E-01
  4.611049E-01
  4.608650E-01
  4.595285E-01
  4.643399E-01
  4.675506E-01
  4.736717E-01
  4.737854E-01
  4.741625E-01
  4.693668E-01
  4.683309E-01
  4.655415E-01
  4.674560E-01
  4.659904E-01
  4.668688E-01
  4.664106E-01
  4.689140E-01
  4.675723E-01
  4.677793E-01
  4.663683E-01
  4.680233E-01
  4.678651E-01
  4.693468E-01
  4.675446E-01
  4.667898E-01
  4.632898E-01
  4.622044E-01
  4.600892E-01
  4.618679E-01
  4.633062E-01
  4.681513E-01
  4.711959E-01
  4.760493E-01
  4.779156E-01
  4.805964E-01
  4.787952E-01
  4.761007E-01
  4.684700E-01
  4.621680E-01
  4.556564E-01
  4.552770E-01
  4.567073E-01
  4.619982E-01
  4.638066E-01
  4.647663E-01
  4.613965E-01
  4.605804E-01
  4.602027E-01
  4.648001E-01
  4.682400E-01
  4.722872E-01
  4.710694E-01
  4.694006E-01
  4.648942E-01
  4.638637E-01
  4.628851E-01
  4.659001E-01
  4.674686E-01
  4.707529E-01
  4.706828E-01
  4.714160E-01
  4.688344E-01
  4.677231E-01
  4.642760E-01
  4.633728E-01
  4.611839E-01
  4.622862E-01
  4.622722E-01
  4.650172E-01
  4.656530E-01
  4.680212E-01
  4.673841E-01
  4.677167E-01
  4.645427E-01
  4.626908E-01
  4.591003E-01
  4.594990E-01
  4.601395E-01
  4.644668E-01
  4.786442E-01
  4.768324E-01
  4.722206E-01
  4.689056E-01
  4.665866E-01
  4.666196E-01
  4.664413E-01
  4.668219E-01
  4.659415E-01
  4.655695E-01
  4.643905E-01
  4.641808E-01
  4.635692E-01
  4.644308E-01
  4.654951E-01
  4.684856E-01
  4.716604E-01
  4.760573E-01
  4.791413E-01
  4.813037E-01
  4.798740E-01
  4.761508E-01
  4.694494E-01
  4.632480E-01
  4.578678E-01
  4.558335E-01
  4.553239E-01
  4.569596E-01
  4.583639E-01
  4.609386E-01
  4.633118E-01
  4.669180E-01
  4.693089E-01
  4.709447E-01
  4.698110E-01
  4.682672E-01
  4.661879E-01
  4.661662E-01
  4.664937E-01
  4.679005E-01
  4.682253E-01
  4.692695E-01
  4.699898E-01
  4.719159E-01
  4.724678E-01
  4.719889E-01
  4.684800E-01
  4.644382E-01
  4.600072E-01
  4.583957E-01
  4.588989E-01
  4.629277E-01
  4.676703E-01
  4.726181E-01
  4.739437E-01
  4.718892E-01
  4.652934E-01
  4.580259E-01
  4.516930E-01
  4.504937E-01
  4.537661E-01
  4.618386E-01
  4.702006E-01
  4.770441E-01
  4.807640E-01
  4.804431E-01
  4.759029E-01
  4.696362E-01
  4.656285E-01
  4.647187E-01
  4.668291E-01
  4.691414E-01
  4.702128E-01
  4.685011E-01
  4.654597E-01
  4.622839E-01
  4.614916E-01
  4.631951E-01
  4.673085E-01
  4.712736E-01
  4.740166E-01
  4.745022E-01
  4.745044E-01
  4.745621E-01
  4.752120E-01
  4.741866E-01
  4.706233E-01
  4.641103E-01
  4.576318E-01
  4.532684E-01
  4.529228E-01
  4.549252E-01
  4.577039E-01
  4.590384E-01
  4.599696E-01
  4.615533E-01
  4.656943E-01
  4.710439E-01
  4.759212E-01
  4.772152E-01
  4.748608E-01
  4.696121E-01
  4.647143E-01
  4.616354E-01
  4.618463E-01
  4.641632E-01
  4.679036E-01
  4.707175E-01
  4.718053E-01
  4.697849E-01
  4.658428E-01
  4.609483E-01
  4.578786E-01
  4.575899E-01
  4.610801E-01
  4.663907E-01
  4.716580E-01
  4.736609E-01
  4.719972E-01
  4.669145E-01
  4.611880E-01
  4.559712E-01
  4.528349E-01
  4.515818E-01
  4.535532E-01
  4.586974E-01
  4.670499E-01
  4.753521E-01
  4.876059E-01
  4.824813E-01
  4.765053E-01
  4.683654E-01
  4.650243E-01
  4.622312E-01
  4.636587E-01
  4.633282E-01
  4.649324E-01
  4.635692E-01
  4.642381E-01
  4.629050E-01
  4.646861E-01
  4.649483E-01
  4.677844E-01
  4.677548E-01
  4.691235E-01
  4.675594E-01
  4.685371E-01
  4.679458E-01
  4.701486E-01
  4.694995E-01
  4.697509E-01
  4.661854E-01
  4.643438E-01
  4.606308E-01
  4.602461E-01
  4.586103E-01
  4.603998E-01
  4.613240E-01
  4.662815E-01
  4.700543E-01
  4.756325E-01
  4.763517E-01
  4.759877E-01
  4.708007E-01
  4.676688E-01
  4.637021E-01
  4.639175E-01
  4.629898E-01
  4.649702E-01
  4.653156E-01
  4.688468E-01
  4.701879E-01
  4.722906E-01
  4.689379E-01
  4.649412E-01
  4.577107E-01
  4.547297E-01
  4.534665E-01
  4.588810E-01
  4.648930E-01
  4.733437E-01
  4.765451E-01
  4.773123E-01
  4.710384E-01
  4.643648E-01
  4.555844E-01
  4.521942E-01
  4.514644E-01
  4.583498E-01
  4.667959E-01
  4.783672E-01
  4.846318E-01
  4.806352E-01
  4.771407E-01
  4.751275E-01
  4.662955E-01
  4.641085E-01
  4.596514E-01
  4.630603E-01
  4.621129E-01
  4.654836E-01
  4.619152E-01
  4.626660E-01
  4.588797E-01
  4.623982E-01
  4.627291E-01
  4.687728E-01
  4.676342E-01
  4.685479E-01
  4.619002E-01
  4.609873E-01
  4.578755E-01
  4.634290E-01
  4.650808E-01
  4.703858E-01
  4.672836E-01
  4.673848E-01
  4.625030E-01
  4.647407E-01
  4.632204E-01
  4.669830E-01
  4.646012E-01
  4.673189E-01
  4.661588E-01
  4.723588E-01
  4.741069E-01
  4.795142E-01
  4.759140E-01
  4.738529E-01
  4.646558E-01
  4.615858E-01
  4.562164E-01
  4.596947E-01
  4.608404E-01
  4.683817E-01
  4.694833E-01
  4.727519E-01
  4.669380E-01
  4.638596E-01
  4.555297E-01
  4.550487E-01
  4.534331E-01
  4.607132E-01
  4.643420E-01
  4.719498E-01
  4.709554E-01
  4.720546E-01
  4.665867E-01
  4.672483E-01
  4.641702E-01
  4.670818E-01
  4.645270E-01
  4.673525E-01
  4.663420E-01
  4.727745E-01
  4.748934E-01
  4.784029E-01
  4.717244E-01
  4.721680E-01
  4.641895E-01
  4.651510E-01
  4.587314E-01
  4.612265E-01
  4.559877E-01
  4.594990E-01
  4.555623E-01
  4.608787E-01
  4.590384E-01
  4.660670E-01
  4.645023E-01
  4.696183E-01
  4.640170E-01
  4.646311E-01
  4.564993E-01
  4.580855E-01
  4.542494E-01
  4.613113E-01
  4.616044E-01
  4.699431E-01
  4.686574E-01
  4.741854E-01
  4.703146E-01
  4.740164E-01
  4.689616E-01
  4.723436E-01
  4.685539E-01
  4.748391E-01
  4.739915E-01
  4.806479E-01
  4.760098E-01
  4.761506E-01
  4.659870E-01
  4.648321E-01
  4.580139E-01
  4.621271E-01
  4.597235E-01
  4.663984E-01
  4.654755E-01
  4.732251E-01
  4.718787E-01
  4.762064E-01
  4.684436E-01
  4.661856E-01
  4.555342E-01
  4.557198E-01
  4.517295E-01
  4.594431E-01
  4.607128E-01
  4.699827E-01
  4.693959E-01
  4.753338E-01
  4.717382E-01
  4.758872E-01
  4.715174E-01
  4.753813E-01
  4.710276E-01
  4.755074E-01
  4.724534E-01
  4.781221E-01
  4.748955E-01
  4.667808E-01
  4.651141E-01
  4.703918E-01
  4.647863E-01
  4.667676E-01
  4.604650E-01
  4.638065E-01
  4.591524E-01
  4.629884E-01
  4.577757E-01
  4.613288E-01
  4.574906E-01
  4.641138E-01
  4.633302E-01
  4.705509E-01
  4.663050E-01
  4.672411E-01
  4.575937E-01
  4.577005E-01
  4.529057E-01
  4.606804E-01
  4.618198E-01
  4.707231E-01
  4.684841E-01
  4.730929E-01
  4.688832E-01
  4.741951E-01
  4.710071E-01
  4.754103E-01
  4.695869E-01
  4.720468E-01
  4.670874E-01
  4.726996E-01
  4.704198E-01
  4.756623E-01
  4.695842E-01
  4.697599E-01
  4.605297E-01
  4.613966E-01
  4.567715E-01
  4.642346E-01
  4.655308E-01
  4.758057E-01
  4.750947E-01
  4.790605E-01
  4.703038E-01
  4.683157E-01
  4.585486E-01
  4.603134E-01