# vtk DataFile Version 2.0
title
ASCII
DATASET STRUCTURED_GRID
DIMENSIONS   64   64    1
POINTS   4096  float
  0.000000E+00  0.000000E+00  0.000000E+00
  0.000000E+00  3.906250E-01  0.000000E+00
  0.000000E+00  7.812500E-01  0.000000E+00
  0.000000E+00  1.171875E+00  0.000000E+00
  0.000000E+00  1.562500E+00  0.000000E+00
  0.000000E+00  1.953125E+00  0.000000E+00
  0.000000E+00  2.343750E+00  0.000000E+00
  0.000000E+00  2.734375E+00  0.000000E+00
  0.000000E+00  3.125000E+00  0.000000E+00
  0.000000E+00  3.515625E+00  0.000000E+00
  0.000000E+00  3.906250E+00  0.000000E+00
  0.000000E+00  4.296875E+00  0.000000E+00
  0.000000E+00  4.687500E+00  0.000000E+00
  0.000000E+00  5.078125E+00  0.000000E+00
  0.000000E+00  5.468750E+00  0.000000E+00
  0.000000E+00  5.859375E+00  0.000000E+00
  0.000000E+00  6.250000E+00  0.000000E+00
  0.000000E+00  6.640625E+00  0.000000E+00
  0.000000E+00  7.031250E+00  0.000000E+00
  0.000000E+00  7.421875E+00  0.000000E+00
  0.000000E+00  7.812500E+00  0.000000E+00
  0.000000E+00  8.203125E+00  0.000000E+00
  0.000000E+00  8.593750E+00  0.000000E+00
  0.000000E+00  8.984375E+00  0.000000E+00
  0.000000E+00  9.375000E+00  0.000000E+00
  0.000000E+00  9.765625E+00  0.000000E+00
  0.000000E+00  1.015625E+01  0.000000E+00
  0.000000E+00  1.054688E+01  0.000000E+00
  0.000000E+00  1.093750E+01  0.000000E+00
  0.000000E+00  1.132812E+01  0.000000E+00
  0.000000E+00  1.171875E+01  0.000000E+00
  0.000000E+00  1.210938E+01  0.000000E+00
  0.000000E+00  1.250000E+01  0.000000E+00
  0.000000E+00  1.289062E+01  0.000000E+00
  0.000000E+00  1.328125E+01  0.000000E+00
  0.000000E+00  1.367188E+01  0.000000E+00
  0.000000E+00  1.406250E+01  0.000000E+00
  0.000000E+00  1.445312E+01  0.000000E+00
  0.000000E+00  1.484375E+01  0.000000E+00
  0.000000E+00  1.523438E+01  0.000000E+00
  0.000000E+00  1.562500E+01  0.000000E+00
  0.000000E+00  1.601562E+01  0.000000E+00
  0.000000E+00  1.640625E+01  0.000000E+00
  0.000000E+00  1.679688E+01  0.000000E+00
  0.000000E+00  1.718750E+01  0.000000E+00
  0.000000E+00  1.757812E+01  0.000000E+00
  0.000000E+00  1.796875E+01  0.000000E+00
  0.000000E+00  1.835938E+01  0.000000E+00
  0.000000E+00  1.875000E+01  0.000000E+00
  0.000000E+00  1.914062E+01  0.000000E+00
  0.000000E+00  1.953125E+01  0.000000E+00
  0.000000E+00  1.992188E+01  0.000000E+00
  0.000000E+00  2.031250E+01  0.000000E+00
  0.000000E+00  2.070312E+01  0.000000E+00
  0.000000E+00  2.109375E+01  0.000000E+00
  0.000000E+00  2.148438E+01  0.000000E+00
  0.000000E+00  2.187500E+01  0.000000E+00
  0.000000E+00  2.226562E+01  0.000000E+00
  0.000000E+00  2.265625E+01  0.000000E+00
  0.000000E+00  2.304688E+01  0.000000E+00
  0.000000E+00  2.343750E+01  0.000000E+00
  0.000000E+00  2.382812E+01  0.000000E+00
  0.000000E+00  2.421875E+01  0.000000E+00
  0.000000E+00  2.460938E+01  0.000000E+00
  3.906250E-01  0.000000E+00  0.000000E+00
  3.906250E-01  3.906250E-01  0.000000E+00
  3.906250E-01  7.812500E-01  0.000000E+00
  3.906250E-01  1.171875E+00  0.000000E+00
  3.906250E-01  1.562500E+00  0.000000E+00
  3.906250E-01  1.953125E+00  0.000000E+00
  3.906250E-01  2.343750E+00  0.000000E+00
  3.906250E-01  2.734375E+00  0.000000E+00
  3.906250E-01  3.125000E+00  0.000000E+00
  3.906250E-01  3.515625E+00  0.000000E+00
  3.906250E-01  3.906250E+00  0.000000E+00
  3.906250E-01  4.296875E+00  0.000000E+00
  3.906250E-01  4.687500E+00  0.000000E+00
  3.906250E-01  5.078125E+00  0.000000E+00
  3.906250E-01  5.468750E+00  0.000000E+00
  3.906250E-01  5.859375E+00  0.000000E+00
  3.906250E-01  6.250000E+00  0.000000E+00
  3.906250E-01  6.640625E+00  0.000000E+00
  3.906250E-01  7.031250E+00  0.000000E+00
  3.906250E-01  7.421875E+00  0.000000E+00
  3.906250E-01  7.812500E+00  0.000000E+00
  3.906250E-01  8.203125E+00  0.000000E+00
  3.906250E-01  8.593750E+00  0.000000E+00
  3.906250E-01  8.984375E+00  0.000000E+00
  3.906250E-01  9.375000E+00  0.000000E+00
  3.906250E-01  9.765625E+00  0.000000E+00
  3.906250E-01  1.015625E+01  0.000000E+00
  3.906250E-01  1.054688E+01  0.000000E+00
  3.906250E-01  1.093750E+01  0.000000E+00
  3.906250E-01  1.132812E+01  0.000000E+00
  3.906250E-01  1.171875E+01  0.000000E+00
  3.906250E-01  1.210938E+01  0.000000E+00
  3.906250E-01  1.250000E+01  0.000000E+00
  3.906250E-01  1.289062E+01  0.000000E+00
  3.906250E-01  1.328125E+01  0.000000E+00
  3.906250E-01  1.367188E+01  0.000000E+00
  3.906250E-01  1.406250E+01  0.000000E+00
  3.906250E-01  1.445312E+01  0.000000E+00
  3.906250E-01  1.484375E+01  0.000000E+00
  3.906250E-01  1.523438E+01  0.000000E+00
  3.906250E-01  1.562500E+01  0.000000E+00
  3.906250E-01  1.601562E+01  0.000000E+00
  3.906250E-01  1.640625E+01  0.000000E+00
  3.906250E-01  1.679688E+01  0.000000E+00
  3.906250E-01  1.718750E+01  0.000000E+00
  3.906250E-01  1.757812E+01  0.000000E+00
  3.906250E-01  1.796875E+01  0.000000E+00
  3.906250E-01  1.835938E+01  0.000000E+00
  3.906250E-01  1.875000E+01  0.000000E+00
  3.906250E-01  1.914062E+01  0.000000E+00
  3.906250E-01  1.953125E+01  0.000000E+00
  3.906250E-01  1.992188E+01  0.000000E+00
  3.906250E-01  2.031250E+01  0.000000E+00
  3.906250E-01  2.070312E+01  0.000000E+00
  3.906250E-01  2.109375E+01  0.000000E+00
  3.906250E-01  2.148438E+01  0.000000E+00
  3.906250E-01  2.187500E+01  0.000000E+00
  3.906250E-01  2.226562E+01  0.000000E+00
  3.906250E-01  2.265625E+01  0.000000E+00
  3.906250E-01  2.304688E+01  0.000000E+00
  3.906250E-01  2.343750E+01  0.000000E+00
  3.906250E-01  2.382812E+01  0.000000E+00
  3.906250E-01  2.421875E+01  0.000000E+00
  3.906250E-01  2.460938E+01  0.000000E+00
  7.812500E-01  0.000000E+00  0.000000E+00
  7.812500E-01  3.906250E-01  0.000000E+00
  7.812500E-01  7.812500E-01  0.000000E+00
  7.812500E-01  1.171875E+00  0.000000E+00
  7.812500E-01  1.562500E+00  0.000000E+00
  7.812500E-01  1.953125E+00  0.000000E+00
  7.812500E-01  2.343750E+00  0.000000E+00
  7.812500E-01  2.734375E+00  0.000000E+00
  7.812500E-01  3.125000E+00  0.000000E+00
  7.812500E-01  3.515625E+00  0.000000E+00
  7.812500E-01  3.906250E+00  0.000000E+00
  7.812500E-01  4.296875E+00  0.000000E+00
  7.812500E-01  4.687500E+00  0.000000E+00
  7.812500E-01  5.078125E+00  0.000000E+00
  7.812500E-01  5.468750E+00  0.000000E+00
  7.812500E-01  5.859375E+00  0.000000E+00
  7.812500E-01  6.250000E+00  0.000000E+00
  7.812500E-01  6.640625E+00  0.000000E+00
  7.812500E-01  7.031250E+00  0.000000E+00
  7.812500E-01  7.421875E+00  0.000000E+00
  7.812500E-01  7.812500E+00  0.000000E+00
  7.812500E-01  8.203125E+00  0.000000E+00
  7.812500E-01  8.593750E+00  0.000000E+00
  7.812500E-01  8.984375E+00  0.000000E+00
  7.812500E-01  9.375000E+00  0.000000E+00
  7.812500E-01  9.765625E+00  0.000000E+00
  7.812500E-01  1.015625E+01  0.000000E+00
  7.812500E-01  1.054688E+01  0.000000E+00
  7.812500E-01  1.093750E+01  0.000000E+00
  7.812500E-01  1.132812E+01  0.000000E+00
  7.812500E-01  1.171875E+01  0.000000E+00
  7.812500E-01  1.210938E+01  0.000000E+00
  7.812500E-01  1.250000E+01  0.000000E+00
  7.812500E-01  1.289062E+01  0.000000E+00
  7.812500E-01  1.328125E+01  0.000000E+00
  7.812500E-01  1.367188E+01  0.000000E+00
  7.812500E-01  1.406250E+01  0.000000E+00
  7.812500E-01  1.445312E+01  0.000000E+00
  7.812500E-01  1.484375E+01  0.000000E+00
  7.812500E-01  1.523438E+01  0.000000E+00
  7.812500E-01  1.562500E+01  0.000000E+00
  7.812500E-01  1.601562E+01  0.000000E+00
  7.812500E-01  1.640625E+01  0.000000E+00
  7.812500E-01  1.679688E+01  0.000000E+00
  7.812500E-01  1.718750E+01  0.000000E+00
  7.812500E-01  1.757812E+01  0.000000E+00
  7.812500E-01  1.796875E+01  0.000000E+00
  7.812500E-01  1.835938E+01  0.000000E+00
  7.812500E-01  1.875000E+01  0.000000E+00
  7.812500E-01  1.914062E+01  0.000000E+00
  7.812500E-01  1.953125E+01  0.000000E+00
  7.812500E-01  1.992188E+01  0.000000E+00
  7.812500E-01  2.031250E+01  0.000000E+00
  7.812500E-01  2.070312E+01  0.000000E+00
  7.812500E-01  2.109375E+01  0.000000E+00
  7.812500E-01  2.148438E+01  0.000000E+00
  7.812500E-01  2.187500E+01  0.000000E+00
  7.812500E-01  2.226562E+01  0.000000E+00
  7.812500E-01  2.265625E+01  0.000000E+00
  7.812500E-01  2.304688E+01  0.000000E+00
  7.812500E-01  2.343750E+01  0.000000E+00
  7.812500E-01  2.382812E+01  0.000000E+00
  7.812500E-01  2.421875E+01  0.000000E+00
  7.812500E-01  2.460938E+01  0.000000E+00
  1.171875E+00  0.000000E+00  0.000000E+00
  1.171875E+00  3.906250E-01  0.000000E+00
  1.171875E+00  7.812500E-01  0.000000E+00
  1.171875E+00  1.171875E+00  0.000000E+00
  1.171875E+00  1.562500E+00  0.000000E+00
  1.171875E+00  1.953125E+00  0.000000E+00
  1.171875E+00  2.343750E+00  0.000000E+00
  1.171875E+00  2.734375E+00  0.000000E+00
  1.171875E+00  3.125000E+00  0.000000E+00
  1.171875E+00  3.515625E+00  0.000000E+00
  1.171875E+00  3.906250E+00  0.000000E+00
  1.171875E+00  4.296875E+00  0.000000E+00
  1.171875E+00  4.687500E+00  0.000000E+00
  1.171875E+00  5.078125E+00  0.000000E+00
  1.171875E+00  5.468750E+00  0.000000E+00
  1.171875E+00  5.859375E+00  0.000000E+00
  1.171875E+00  6.250000E+00  0.000000E+00
  1.171875E+00  6.640625E+00  0.000000E+00
  1.171875E+00  7.031250E+00  0.000000E+00
  1.171875E+00  7.421875E+00  0.000000E+00
  1.171875E+00  7.812500E+00  0.000000E+00
  1.171875E+00  8.203125E+00  0.000000E+00
  1.171875E+00  8.593750E+00  0.000000E+00
  1.171875E+00  8.984375E+00  0.000000E+00
  1.171875E+00  9.375000E+00  0.000000E+00
  1.171875E+00  9.765625E+00  0.000000E+00
  1.171875E+00  1.015625E+01  0.000000E+00
  1.171875E+00  1.054688E+01  0.000000E+00
  1.171875E+00  1.093750E+01  0.000000E+00
  1.171875E+00  1.132812E+01  0.000000E+00
  1.171875E+00  1.171875E+01  0.000000E+00
  1.171875E+00  1.210938E+01  0.000000E+00
  1.171875E+00  1.250000E+01  0.000000E+00
  1.171875E+00  1.289062E+01  0.000000E+00
  1.171875E+00  1.328125E+01  0.000000E+00
  1.171875E+00  1.367188E+01  0.000000E+00
  1.171875E+00  1.406250E+01  0.000000E+00
  1.171875E+00  1.445312E+01  0.000000E+00
[...]
POINT_DATA   4096
SCALARS CON  float  1
LOOKUP_TABLE default
  4.714845E-01
  4.725002E-01
  4.793632E-01
  4.755031E-01
  4.758511E-01
  4.683986E-01
  4.705722E-01
  4.686601E-01
  4.753828E-01
  4.733643E-01
  4.756140E-01
  4.682831E-01
  4.682276E-01
  4.630351E-01
  4.679412E-01
  4.676517E-01
  4.748450E-01
  4.731066E-01
  4.761397E-01
  4.698349E-01
  4.701656E-01
  4.637232E-01
  4.652177E-01
  4.597508E-01
  4.617392E-01
  4.576202E-01
  4.630223E-01
  4.637188E-01
  4.725667E-01
  4.723661E-01
  4.760119E-01
  4.697125E-01
  4.707421E-01
  4.667606E-01
  4.722267E-01
  4.704778E-01
  4.738696E-01
  4.674768E-01
  4.673866E-01
  4.609557E-01
  4.633826E-01
  4.595255E-01
  4.626988E-01
  4.579672E-01
  4.605204E-01
  4.575911E-01
  4.650424E-01
  4.682969E-01
  4.792929E-01
  4.793617E-01
  4.804177E-01
  4.689623E-01
  4.644012E-01
  4.575196E-01
  4.652413E-01
  4.714904E-01
  4.856821E-01
  4.877009E-01
  4.900378E-01
  4.798527E-01
  4.756993E-01
  4.661107E-01
  4.670704E-01
  4.642655E-01
  4.719518E-01
  4.746833E-01
  4.830733E-01
  4.816388E-01
  4.810238E-01
  4.712816E-01
  4.685863E-01
  4.638609E-01
  4.690011E-01
  4.697175E-01
  4.753818E-01
  4.726308E-01
  4.737630E-01
  4.679816E-01
  4.687700E-01
  4.653786E-01
  4.700950E-01
  4.698925E-01
  4.747691E-01
  4.711288E-01
  4.711756E-01
  4.646612E-01
  4.654364E-01
  4.621332E-01
  4.658889E-01
  4.636915E-01
  4.672279E-01
  4.651739E-01
  4.700505E-01
  4.695360E-01
  4.744836E-01
  4.718222E-01
  4.734278E-01
  4.679961E-01
  4.685411E-01
  4.638954E-01
  4.663968E-01
  4.638718E-01
  4.675176E-01
  4.643254E-01
  4.655990E-01
  4.596372E-01
  4.593970E-01
  4.541265E-01
  4.565559E-01
  4.554789E-01
  4.632170E-01
  4.674336E-01
  4.777484E-01
  4.783936E-01
  4.790280E-01
  4.691201E-01
  4.658541E-01
  4.624033E-01
  4.721722E-01
  4.799019E-01
  4.914041E-01
  4.897775E-01
  4.872801E-01
  4.758666E-01
  4.719226E-01
  4.651175E-01
  4.670307E-01
  4.652668E-01
  4.638612E-01
  4.736949E-01
  4.835682E-01
  4.850469E-01
  4.813190E-01
  4.719213E-01
  4.660410E-01
  4.628737E-01
  4.662034E-01
  4.695585E-01
  4.740891E-01
  4.741566E-01
  4.738062E-01
  4.702847E-01
  4.691288E-01
  4.674003E-01
  4.691805E-01
  4.697121E-01
  4.718566E-01
  4.708574E-01
  4.707627E-01
  4.682217E-01
  4.677889E-01
  4.656199E-01
  4.655923E-01
  4.638266E-01
  4.646310E-01
  4.642028E-01
  4.660764E-01
  4.654063E-01
  4.656839E-01
  4.634312E-01
  4.638481E-01
  4.638190E-01
  4.669603E-01
  4.678950E-01
  4.693118E-01
  4.670349E-01
  4.658276E-01
  4.624851E-01
  4.611323E-01
  4.576176E-01
  4.560364E-01
  4.531967E-01
  4.541594E-01
  4.559092E-01
  4.625141E-01
  4.689020E-01
  4.765423E-01
  4.784456E-01
  4.771206E-01
  4.700928E-01
  4.654550E-01
  4.633983E-01
  4.695859E-01
  4.780350E-01
  4.877502E-01
  4.896793E-01
  4.860976E-01
  4.751813E-01
  4.651397E-01
  4.557234E-01
  4.532544E-01
  4.548211E-01
  4.636408E-01
  4.744446E-01
  4.811864E-01
  4.854382E-01
  4.786706E-01
  4.701946E-01
  4.592256E-01
  4.565563E-01
  4.569590E-01
  4.647796E-01
  4.702431E-01
  4.765274E-01
  4.755577E-01
  4.741693E-01
  4.680678E-01
  4.663997E-01
  4.646596E-01
  4.690530E-01
  4.711104E-01
  4.747142E-01
  4.724203E-01
  4.717044E-01
  4.680982E-01
  4.690470E-01
  4.676043E-01
  4.688038E-01
  4.655628E-01
  4.649227E-01
  4.619857E-01
  4.640799E-01
  4.644447E-01
  4.678818E-01
  4.664665E-01
  4.662268E-01
  4.619355E-01
  4.618435E-01
  4.609009E-01
  4.651729E-01
  4.664375E-01
  4.688390E-01
  4.650438E-01
  4.625926E-01
  4.575224E-01
  4.580710E-01
  4.582097E-01
  4.633118E-01
  4.658541E-01
  4.713836E-01
  4.725755E-01
  4.745696E-01
  4.702910E-01
  4.674459E-01
  4.628339E-01
  4.658096E-01
  4.704287E-01
  4.800287E-01
  4.834034E-01
  4.838269E-01
  4.755741E-01
  4.686561E-01
  4.600529E-01
  4.575467E-01
  4.549598E-01
  4.589239E-01
  4.594700E-01
  4.730762E-01
  4.771259E-01
  4.823838E-01
  4.728359E-01
  4.671548E-01
  4.554937E-01
  4.562345E-01
  4.549196E-01
  4.643628E-01
  4.666825E-01
  4.742996E-01
  4.710546E-01
  4.727503E-01
  4.662117E-01
  4.683769E-01
  4.651724E-01
  4.712150E-01
  4.702265E-01
  4.758494E-01
  4.722031E-01
  4.744813E-01
  4.682283E-01
  4.691817E-01
  4.628273E-01
  4.644960E-01
  4.594634E-01
  4.627896E-01
  4.594294E-01
  4.639608E-01
  4.610041E-01
  4.652352E-01
  4.617082E-01
  4.657563E-01
  4.627312E-01
  4.676175E-01
  4.650838E-01
  4.696195E-01
  4.657508E-01
  4.682027E-01
  4.621601E-01
  4.635842E-01
  4.588539E-01
  4.637872E-01
  4.632010E-01
  4.707295E-01
  4.698151E-01
  4.746919E-01
  4.702675E-01
  4.719154E-01
  4.649597E-01
  4.651962E-01
  4.590417E-01
  4.629274E-01
  4.625319E-01
  4.716933E-01
  4.728136E-01
  4.783246E-01
  4.719891E-01
  4.697864E-01
  4.587883E-01
  4.564061E-01
  4.499828E-01
  4.559300E-01
  4.647083E-01
  4.734782E-01
  4.733572E-01
  4.783517E-01
  4.691458E-01
  4.650717E-01
  4.528814E-01
  4.534623E-01
  4.508796E-01
  4.609921E-01
  4.636771E-01
  4.731474E-01
  4.700725E-01
  4.721692E-01
  4.641902E-01
  4.664366E-01
  4.634420E-01
  4.722052E-01
  4.728810E-01
  4.799678E-01
  4.745101E-01
  4.749825E-01
  4.661700E-01
  4.672994E-01
  4.612613E-01
  4.645539E-01
  4.591602E-01
  4.627334E-01
  4.591658E-01
  4.665401E-01
  4.667246E-01
  4.747254E-01
  4.707418E-01
  4.718566E-01
  4.627920E-01
  4.641895E-01
  4.606951E-01
  4.688946E-01
  4.684796E-01
  4.739709E-01
  4.674019E-01
  4.685150E-01
  4.631337E-01
  4.700584E-01
  4.704636E-01
  4.785519E-01
  4.744563E-01
  4.758050E-01
  4.669679E-01
  4.671292E-01
  4.595581E-01
  4.617873E-01
  4.570317E-01
  4.631170E-01
  4.623439E-01
  4.702533E-01
  4.674169E-01
  4.706361E-01
  4.637949E-01
  4.662288E-01
  4.613440E-01
  4.658477E-01
  4.616798E-01
  4.666351E-01
  4.634141E-01
  4.704452E-01
  4.702203E-01
  4.739000E-01
  4.671954E-01
  4.652677E-01
  4.573723E-01
  4.589844E-01
  4.571511E-01
  4.641089E-01
  4.645201E-01
  4.700533E-01
  4.665138E-01
  4.682774E-01
  4.636642E-01
  4.677368E-01
  4.674032E-01
  4.751013E-01
  4.754483E-01
  4.802800E-01
  4.752239E-01
  4.743740E-01
  4.654711E-01
  4.635706E-01
  4.564839E-01
  4.583089E-01
  4.556740E-01
  4.614399E-01
  4.614638E-01
  4.683886E-01
  4.679908E-01
  4.731071E-01
  4.699670E-01
  4.726684E-01
  4.687394E-01
  4.724564E-01
  4.701266E-01
  4.742470E-01
  4.702171E-01
  4.713157E-01
  4.650174E-01
  4.666889E-01
  4.643826E-01
  4.715646E-01
  4.729259E-01
  4.792745E-01
  4.752469E-01
  4.748863E-01
  4.666828E-01
  4.661222E-01
  4.603917E-01
  4.625054E-01
  4.584770E-01
  4.616282E-01
  4.587882E-01
  4.634421E-01
  4.618413E-01
  4.669547E-01
  4.648617E-01
  4.686880E-01
  4.647149E-01
  4.665769E-01
  4.616557E-01
  4.647752E-01
  4.671433E-01
  4.679354E-01
  4.677874E-01
  4.707845E-01
  4.690807E-01
  4.679631E-01
  4.630453E-01
  4.622416E-01
  4.611920E-01
  4.654281E-01
  4.675553E-01
  4.712343E-01
  4.694035E-01
  4.683674E-01
  4.644396E-01
  4.658423E-01
  4.679796E-01
  4.754625E-01
  4.793801E-01
  4.823775E-01
  4.775116E-01
  4.723114E-01
  4.640978E-01
  4.611801E-01
  4.584824E-01
  4.608090E-01
  4.610657E-01
  4.643880E-01
  4.654895E-01
  4.707806E-01
  4.740138E-01
  4.790733E-01
  4.780881E-01
  4.766265E-01
  4.709779E-01
  4.699261E-01
  4.691734E-01
  4.733283E-01
  4.737477E-01
  4.741703E-01
  4.693121E-01
  4.677010E-01
  4.662105E-01
  4.709442E-01
  4.737586E-01
  4.772284E-01
  4.740564E-01
  4.713700E-01
  4.659125E-01
  4.650560E-01
  4.629034E-01
  4.643887E-01
  4.634095E-01
  4.658326E-01
  4.655804E-01
  4.673906E-01
  4.647450E-01
  4.641419E-01
  4.617811E-01
  4.648998E-01
  4.671469E-01
  4.719117E-01
  4.712346E-01
  4.708880E-01
  4.616142E-01
  4.625450E-01
  4.653116E-01
  4.683142E-01
  4.707139E-01
  4.715107E-01
  4.714471E-01
  4.709688E-01
  4.712282E-01
  4.718248E-01
  4.724266E-01
  4.716415E-01
  4.696377E-01
  4.670077E-01
  4.659378E-01
  4.673090E-01
  4.714015E-01
  4.761553E-01
  4.796576E-01
  4.796877E-01
  4.763265E-01
  4.703861E-01
  4.643460E-01
  4.597933E-01
  4.584194E-01
  4.599195E-01
  4.636223E-01
  4.673788E-01
  4.702265E-01
  4.713550E-01
  4.716609E-01
  4.714709E-01
  4.718107E-01
  4.726963E-01
  4.746408E-01
  4.766460E-01
  4.778685E-01
  4.766595E-01
  4.732255E-01
  4.683491E-01
  4.644728E-01
  4.628490E-01
  4.642326E-01
  4.670644E-01
  4.698506E-01
  4.706990E-01
  4.699472E-01
  4.684179E-01
  4.679003E-01
  4.683245E-01
  4.693164E-01
  4.694372E-01
  4.688343E-01
  4.676361E-01
  4.669487E-01
  4.665746E-01
  4.667518E-01
  4.668953E-01
  4.674112E-01
  4.677400E-01
  4.678165E-01
  4.666631E-01
  4.647077E-01
  4.624487E-01
  4.619520E-01
  4.601872E-01
  4.631394E-01
  4.673178E-01
  4.725007E-01
  4.742010E-01
  4.744804E-01
  4.724312E-01
  4.722755E-01
  4.724631E-01
  4.745464E-01
  4.744230E-01
  4.732184E-01
  4.690147E-01
  4.662415E-01
  4.649656E-01
  4.685992E-01
  4.734831E-01
  4.787606E-01
  4.789424E-01
  4.755670E-01
  4.683621E-01
  4.632354E-01
  4.605833E-01
  4.632564E-01
  4.672179E-01
  4.721335E-01
  4.737034E-01
  4.742215E-01
  4.727631E-01
  4.730387E-01
  4.727480E-01
  4.733374E-01
  4.718986E-01
  4.713845E-01
  4.705403E-01
  4.719914E-01
  4.722713E-01
  4.721764E-01
  4.688735E-01
  4.659546E-01
  4.630978E-01
  4.638279E-01
  4.651762E-01
  4.676484E-01
  4.675220E-01
  4.674807E-01
  4.667207E-01
  4.686205E-01
  4.702096E-01
  4.722647E-01
  4.716598E-01
  4.716297E-01
  4.712650E-01
  4.731652E-01
  4.735636E-01
  4.732308E-01
  4.698979E-01
  4.678361E-01
  4.665940E-01
  4.684904E-01
  4.691522E-01
  4.688059E-01
  4.649284E-01
  4.562540E-01
  4.577634E-01
  4.614046E-01
  4.666483E-01
  4.713986E-01
  4.747699E-01
  4.756977E-01
  4.753654E-01
  4.744472E-01
  4.742399E-01
  4.739067E-01
  4.730073E-01
  4.704494E-01
  4.674758E-01
  4.651994E-01
  4.655395E-01
  4.680545E-01
  4.719563E-01
  4.746784E-01
  4.750973E-01
  4.722797E-01
  4.678640E-01
  4.633570E-01
  4.613892E-01
  4.626716E-01
  4.673821E-01
  4.728708E-01
  4.767609E-01
  4.765619E-01
  4.730878E-01
  4.679700E-01
  4.643630E-01
  4.634153E-01
  4.658323E-01
  4.698127E-01
  4.736676E-01
  4.746695E-01
  4.724547E-01
  4.675209E-01
  4.627633E-01
  4.598213E-01
  4.599338E-01
  4.616200E-01
  4.637328E-01
  4.646323E-01
  4.650652E-01
  4.656542E-01
  4.678663E-01
  4.708554E-01
  4.736376E-01
  4.741018E-01
  4.725420E-01
  4.698063E-01
  4.683984E-01
  4.688897E-01
  4.713991E-01
  4.739371E-01
  4.756123E-01
  4.751903E-01
  4.732523E-01
  4.696406E-01
  4.654382E-01
  4.609041E-01
  4.576632E-01
  4.592903E-01
  4.595582E-01
  4.609578E-01
  4.668997E-01
  4.703588E-01
  4.736499E-01
  4.717041E-01
  4.705519E-01
  4.677920E-01
  4.691956E-01
  4.696395E-01
  4.718624E-01
  4.697194E-01
  4.677707E-01
  4.631962E-01
  4.628848E-01
  4.636461E-01
  4.692884E-01
  4.726846E-01
  4.755377E-01
  4.720953E-01
  4.683478E-01
  4.628036E-01
  4.627775E-01
  4.645918E-01
  4.713035E-01
  4.754355E-01
  4.789247E-01
  4.764762E-01
  4.741154E-01
  4.694223E-01
  4.682035E-01
  4.658178E-01
  4.662205E-01
  4.646659E-01
  4.658984E-01
  4.653439E-01
  4.669507E-01
  4.654317E-01
  4.652479E-01
  4.626478E-01
  4.632283E-01
  4.628560E-01
  4.654560E-01
  4.654980E-01
  4.672098E-01
  4.667137E-01
  4.693544E-01
  4.702880E-01
  4.725843E-01
  4.703604E-01
  4.686544E-01
  4.651695E-01
  4.666953E-01
  4.689730E-01
  4.745522E-01
  4.762243E-01
  4.773989E-01
  4.744336E-01
  4.736248E-01
  4.710840E-01
  4.706247E-01
  4.666419E-01
  4.638316E-01
  4.575531E-01
  4.606737E-01
  4.617722E-01
  4.668470E-01
  4.682203E-01
  4.716608E-01
  4.699275E-01
  4.702786E-01
  4.670645E-01
  4.679032E-01
  4.659927E-01
  4.673187E-01
  4.645460E-01
  4.647439E-01
  4.622123E-01
  4.645800E-01
  4.652025E-01
  4.700790E-01
  4.712918E-01
  4.744294E-01
  4.719045E-01
  4.705400E-01
  4.646870E-01
  4.630784E-01
  4.609171E-01
  4.655735E-01
  4.689454E-01
  4.749040E-01
  4.740614E-01
  4.726777E-01
  4.658138E-01
  4.631149E-01
  4.599460E-01
  4.633306E-01
  4.651092E-01
  4.697300E-01
  4.686170E-01
  4.682589E-01
  4.632502E-01
  4.623062E-01
  4.599695E-01
  4.628707E-01
  4.631656E-01
  4.664229E-01
  4.655531E-01
  4.678418E-01
  4.672423E-01
  4.705307E-01
  4.700440E-01
  4.713577E-01
  4.672623E-01
  4.654259E-01
  4.609213E-01
  4.621369E-01
  4.629440E-01
  4.693068E-01
  4.727481E-01
  4.781161E-01
  4.772641E-01
  4.767080E-01
  4.704589E-01
  4.668241E-01
  4.606312E-01
  4.596791E-01
  4.645449E-01
  4.649156E-01
  4.641318E-01
  4.672884E-01
  4.679274E-01
  4.698556E-01
  4.672861E-01
  4.662885E-01
  4.631114E-01
  4.639976E-01
  4.635265E-01
  4.658256E-01
  4.646112E-01
  4.650039E-01
  4.627048E-01
  4.642884E-01
  4.653493E-01
  4.707497E-01
  4.736765E-01
  4.773680E-01
  4.751957E-01
  4.726654E-01
  4.662931E-01
  4.637144E-01
  4.613316E-01
  4.644012E-01
  4.662612E-01
  4.701961E-01
  4.697584E-01
  4.704132E-01
  4.679550E-01
  4.684072E-01
  4.664358E-01
  4.667795E-01
  4.641182E-01
  4.642927E-01
  4.628105E-01
  4.650346E-01
  4.650680E-01
  4.672913E-01
  4.661748E-01
  4.674135E-01
  4.664223E-01
  4.686016E-01
  4.682528E-01
  4.700640E-01
  4.686103E-01
  4.692859E-01
  4.668471E-01
  4.663367E-01
  4.626182E-01
  4.618692E-01
  4.602872E-01
  4.638780E-01
  4.666919E-01
  4.719546E-01
  4.724851E-01
  4.730781E-01
  4.696279E-01
  4.690892E-01
  4.670832E-01
  4.684888E-01
  4.670438E-01
  4.673575E-01
  4.663063E-01
  4.680325E-01
  4.673236E-01
  4.673964E-01
  4.669671E-01
  4.682911E-01
  4.684222E-01
  4.689068E-01
  4.674067E-01
  4.664749E-01
  4.642860E-01
  4.634132E-01
  4.621157E-01
  4.631812E-01
  4.646411E-01
  4.682403E-01
  4.708063E-01
  4.738584E-01
  4.750882E-01
  4.767878E-01
  4.761885E-01
  4.745282E-01
  4.691817E-01
  4.635993E-01
  4.580607E-01
  4.569602E-01
  4.583992E-01
  4.627176E-01
  4.649651E-01
  4.657707E-01
  4.635519E-01
  4.626527E-01
  4.626238E-01
  4.657774E-01
  4.683980E-01
  4.708052E-01
  4.698345E-01
  4.682900E-01
  4.654434E-01
  4.648017E-01
  4.645051E-01
  4.662836E-01
  4.671484E-01
  4.687811E-01
  4.687686E-01
  4.693026E-01
  4.680918E-01
  4.673163E-01
  4.649318E-01
  4.636826E-01
  4.620418E-01
  4.626871E-01
  4.633087E-01
  4.655304E-01
  4.664814E-01
  4.680231E-01
  4.678342E-01
  4.680029E-01
  4.660675E-01
  4.643573E-01
  4.614966E-01
  4.609953E-01
  4.614029E-01
  4.644122E-01
  4.758949E-01
  4.740158E-01
  4.708736E-01
  4.680955E-01
  4.670321E-01
  4.669126E-01
  4.672413E-01
  4.670157E-01
  4.666041E-01
  4.658167E-01
  4.652168E-01
  4.644996E-01
  4.643182E-01
  4.646583E-01
  4.662020E-01
  4.684487E-01
  4.713711E-01
  4.740275E-01
  4.763568E-01
  4.774443E-01
  4.770563E-01
  4.742837E-01
  4.697688E-01
  4.643467E-01
  4.601459E-01
  4.579423E-01
  4.581551E-01
  4.594474E-01
  4.612132E-01
  4.627299E-01
  4.647368E-01
  4.670107E-01
  4.693441E-01
  4.702187E-01
  4.694812E-01
  4.674293E-01
  4.659953E-01
  4.658244E-01
  4.670696E-01
  4.681828E-01
  4.687528E-01
  4.686172E-01
  4.690353E-01
  4.699302E-01
  4.709430E-01
  4.704012E-01
  4.681450E-01
  4.644928E-01
  4.613884E-01
  4.598151E-01
  4.608150E-01
  4.637718E-01
  4.681104E-01
  4.718150E-01
  4.735229E-01
  4.716966E-01
  4.670192E-01
  4.608495E-01
  4.560992E-01
  4.544532E-01
  4.570797E-01
  4.626905E-01
  4.694505E-01
  4.742924E-01
  4.778067E-01
  4.770986E-01
  4.733516E-01
  4.680883E-01
  4.655200E-01
  4.651796E-01
  4.674687E-01
  4.691332E-01
  4.701039E-01
  4.684827E-01
  4.662144E-01
  4.631647E-01
  4.622651E-01
  4.631301E-01
  4.669002E-01
  4.705176E-01
  4.734031E-01
  4.733887E-01
  4.729335E-01
  4.722433E-01
  4.730938E-01
  4.726212E-01
  4.703968E-01
  4.648214E-01
  4.593698E-01
  4.554001E-01
  4.556023E-01
  4.575335E-01
  4.602680E-01
  4.608762E-01
  4.612840E-01
  4.619452E-01
  4.654950E-01
  4.697966E-01
  4.740056E-01
  4.746425E-01
  4.727862E-01
  4.684990E-01
  4.652828E-01
  4.631215E-01
  4.636599E-01
  4.649408E-01
  4.675446E-01
  4.691890E-01
  4.704006E-01
  4.690764E-01
  4.666081E-01
  4.625473E-01
  4.599993E-01
  4.591958E-01
  4.621561E-01
  4.665260E-01
  4.714341E-01
  4.730869E-01
  4.719022E-01
  4.673814E-01
  4.628917E-01
  4.585601E-01
  4.563144E-01
  4.548980E-01
  4.562618E-01
  4.597808E-01
  4.666035E-01
  4.731902E-01
  4.836914E-01
  4.793770E-01
  4.741847E-01
  4.677267E-01
  4.651157E-01
  4.632473E-01
  4.644661E-01
  4.644317E-01
  4.656887E-01
  4.647036E-01
  4.648651E-01
  4.633603E-01
  4.640731E-01
  4.641567E-01
  4.666630E-01
  4.675150E-01
  4.691572E-01
  4.681792E-01
  4.685514E-01
  4.678364E-01
  4.694015E-01
  4.691389E-01
  4.692812E-01
  4.663417E-01
  4.645104E-01
  4.617507E-01
  4.618607E-01
  4.612438E-01
  4.626453E-01
  4.629139E-01
  4.659334E-01
  4.685958E-01
  4.730726E-01
  4.741870E-01
  4.740228E-01
  4.699339E-01
  4.672503E-01
  4.644091E-01
  4.648754E-01
  4.644560E-01
  4.656988E-01
  4.656144E-01
  4.680775E-01
  4.695254E-01
  4.716660E-01
  4.695181E-01
  4.661901E-01
  4.602155E-01
  4.574904E-01
  4.565982E-01
  4.609135E-01
  4.657653E-01
  4.721146E-01
  4.744519E-01
  4.748064E-01
  4.700638E-01
  4.649837E-01
  4.584585E-01
  4.558552E-01
  4.553782E-01
  4.606413E-01
  4.673975E-01
  4.765130E-01
  4.816105E-01
  4.782575E-01
  4.753623E-01
  4.729926E-01
  4.660773E-01
  4.643122E-01
  4.614681E-01
  4.641314E-01
  4.635996E-01
  4.658680E-01
  4.632743E-01
  4.635244E-01
  4.604361E-01
  4.623461E-01
  4.624513E-01
  4.671427E-01
  4.672630E-01
  4.684619E-01
  4.636786E-01
  4.623812E-01
  4.598643E-01
  4.640511E-01
  4.659194E-01
  4.698825E-01
  4.672473E-01
  4.664561E-01
  4.627117E-01
  4.647125E-01
  4.645132E-01
  4.675256E-01
  4.655161E-01
  4.666739E-01
  4.655850E-01
  4.703180E-01
  4.723698E-01
  4.766307E-01
  4.740456E-01
  4.720781E-01
  4.652101E-01
  4.628162E-01
  4.590290E-01
  4.613838E-01
  4.621423E-01
  4.674442E-01
  4.685487E-01
  4.712501E-01
  4.674985E-01
  4.651748E-01
  4.588348E-01
  4.578763E-01
  4.565090E-01
  4.618185E-01
  4.649125E-01
  4.705662E-01
  4.697707E-01
  4.699838E-01
  4.657573E-01
  4.662970E-01
  4.648306E-01
  4.675918E-01
  4.661926E-01
  4.680739E-01
  4.673106E-01
  4.720588E-01
  4.740784E-01
  4.763071E-01
  4.709028E-01
  4.711135E-01
  4.650692E-01
  4.659379E-01
  4.610262E-01
  4.627640E-01
  4.584748E-01
  4.609571E-01
  4.578327E-01
  4.618310E-01
  4.602850E-01
  4.655244E-01
  4.643131E-01
  4.684386E-01
  4.644816E-01
  4.651659E-01
  4.589027E-01
  4.599951E-01
  4.570959E-01
  4.628212E-01
  4.633751E-01
  4.697714E-01
  4.684066E-01
  4.722413E-01
  4.693355E-01
  4.727334E-01
  4.694793E-01
  4.721949E-01
  4.688402E-01
  4.730808E-01
  4.722239E-01
  4.774855E-01
  4.740876E-01
  4.740247E-01
  4.659376E-01
  4.650270E-01
  4.601958E-01
  4.638088E-01
  4.619720E-01
  4.665370E-01
  4.651324E-01
  4.707985E-01
  4.701241E-01
  4.740364E-01
  4.684273E-01
  4.665884E-01
  4.581599E-01
  4.582546E-01
  4.553803E-01
  4.614473E-01
  4.622430E-01
  4.688781E-01
  4.679738E-01
  4.723738E-01
  4.699177E-01
  4.737345E-01
  4.711775E-01
  4.748203E-01
  4.718688E-01
  4.753355E-01
  4.727808E-01
  4.768018E-01
  4.739800E-01
  4.667069E-01
  4.652053E-01
  4.696098E-01
  4.652592E-01
  4.673968E-01
  4.625348E-01
  4.652806E-01
  4.610018E-01
  4.637441E-01
  4.592694E-01
  4.623756E-01
  4.593600E-01
  4.648376E-01
  4.640419E-01
  4.700000E-01
  4.666324E-01
  4.675595E-01
  4.595036E-01
  4.594461E-01
  4.554883E-01
  4.622547E-01
  4.634842E-01
  4.707194E-01
  4.681949E-01
  4.712798E-01
  4.675375E-01
  4.722922E-01
  4.702112E-01
  4.741448E-01
  4.692046E-01
  4.710276E-01
  4.668524E-01
  4.715385E-01
  4.695342E-01
  4.735919E-01
  4.684087E-01
  4.688752E-01
  4.619339E-01
  4.633010E-01
  4.595246E-01
  4.651070E-01
  4.651820E-01
  4.728280E-01
  4.719001E-01
  4.754586E-01
  4.688996E-01
  4.680213E-01
  4.604615E-01
  4.621309E-01