# vtk DataFile Version 2.0
title
ASCII
DATASET STRUCTURED_GRID
DIMENSIONS   64   64    1
POINTS   4096  float
  0.000000E+00  0.000000E+00  0.000000E+00
  0.000000E+00  3.906250E-01  0.000000E+00
  0.000000E+00  7.812500E-01  0.000000E+00
  0.000000E+00  1.171875E+00  0.000000E+00
  0.000000E+00  1.562500E+00  0.000000E+00
  0.000000E+00  1.953125E+00  0.000000E+00
  0.000000E+00  2.343750E+00  0.000000E+00
  0.000000E+00  2.734375E+00  0.000000E+00
  0.000000E+00  3.125000E+00  0.000000E+00
  0.000000E+00  3.515625E+00  0.000000E+00
  0.000000E+00  3.906250E+00  0.000000E+00
  0.000000E+00  4.296875E+00  0.000000E+00
  0.000000E+00  4.687500E+00  0.000000E+00
  0.000000E+00  5.078125E+00  0.000000E+00
  0.000000E+00  5.468750E+00  0.000000E+00
  0.000000E+00  5.859375E+00  0.000000E+00
  0.000000E+00  6.250000E+00  0.000000E+00
  0.000000E+00  6.640625E+00  0.000000E+00
  0.000000E+00  7.031250E+00  0.000000E+00
  0.000000E+00  7.421875E+00  0.000000E+00
  0.000000E+00  7.812500E+00  0.000000E+00
  0.000000E+00  8.203125E+00  0.000000E+00
  0.000000E+00  8.593750E+00  0.000000E+00
  0.000000E+00  8.984375E+00  0.000000E+00
  0.000000E+00  9.375000E+00  0.000000E+00
  0.000000E+00  9.765625E+00  0.000000E+00
  0.000000E+00  1.015625E+01  0.000000E+00
  0.000000E+00  1.054688E+01  0.000000E+00
  0.000000E+00  1.093750E+01  0.000000E+00
  0.000000E+00  1.132812E+01  0.000000E+00
  0.000000E+00  1.171875E+01  0.000000E+00
  0.000000E+00  1.210938E+01  0.000000E+00
  0.000000E+00  1.250000E+01  0.000000E+00
  0.000000E+00  1.289062E+01  0.000000E+00
  0.000000E+00  1.328125E+01  0.000000E+00
  0.000000E+00  1.367188E+01  0.000000E+00
  0.000000E+00  1.406250E+01  0.000000E+00
  0.000000E+00  1.445312E+01  0.000000E+00
  0.000000E+00  1.484375E+01  0.000000E+00
  0.000000E+00  1.523438E+01  0.000000E+00
  0.000000E+00  1.562500E+01  0.000000E+00
  0.000000E+00  1.601562E+01  0.000000E+00
  0.000000E+00  1.640625E+01  0.000000E+00
  0.000000E+00  1.679688E+01  0.000000E+00
  0.000000E+00  1.718750E+01  0.000000E+00
  0.000000E+00  1.757812E+01  0.000000E+00
  0.000000E+00  1.796875E+01  0.000000E+00
  0.000000E+00  1.835938E+01  0.000000E+00
  0.000000E+00  1.875000E+01  0.000000E+00
  0.000000E+00  1.914062E+01  0.000000E+00
  0.000000E+00  1.953125E+01  0.000000E+00
  0.000000E+00  1.992188E+01  0.000000E+00
  0.000000E+00  2.031250E+01  0.000000E+00
  0.000000E+00  2.070312E+01  0.000000E+00
  0.000000E+00  2.109375E+01  0.000000E+00
  0.000000E+00  2.148438E+01  0.000000E+00
  0.000000E+00  2.187500E+01  0.000000E+00
  0.000000E+00  2.226562E+01  0.000000E+00
  0.000000E+00  2.265625E+01  0.000000E+00
  0.000000E+00  2.304688E+01  0.000000E+00
  0.000000E+00  2.343750E+01  0.000000E+00
  0.000000E+00  2.382812E+01  0.000000E+00
  0.000000E+00  2.421875E+01  0.000000E+00
  0.000000E+00  2.460938E+01  0.000000E+00
  3.906250E-01  0.000000E+00  0.000000E+00
  3.906250E-01  3.906250E-01  0.000000E+00
  3.906250E-01  7.812500E-01  0.000000E+00
  3.906250E-01  1.171875E+00  0.000000E+00
  3.906250E-01  1.562500E+00  0.000000E+00
  3.906250E-01  1.953125E+00  0.000000E+00
  3.906250E-01  2.343750E+00  0.000000E+00
  3.906250E-01  2.734375E+00  0.000000E+00
  3.906250E-01  3.125000E+00  0.000000E+00
  3.906250E-01  3.515625E+00  0.000000E+00
  3.906250E-01  3.906250E+00  0.000000E+00
  3.906250E-01  4.296875E+00  0.000000E+00
  3.906250E-01  4.687500E+00  0.000000E+00
  3.906250E-01  5.078125E+00  0.000000E+00
  3.906250E-01  5.468750E+00  0.000000E+00
  3.906250E-01  5.859375E+00  0.000000E+00
  3.906250E-01  6.250000E+00  0.000000E+00
  3.906250E-01  6.640625E+00  0.000000E+00
  3.906250E-01  7.031250E+00  0.000000E+00
  3.906250E-01  7.421875E+00  0.000000E+00
  3.906250E-01  7.812500E+00  0.000000E+00
  3.906250E-01  8.203125E+00  0.000000E+00
  3.906250E-01  8.593750E+00  0.000000E+00
  3.906250E-01  8.984375E+00  0.000000E+00
  3.906250E-01  9.375000E+00  0.000000E+00
  3.906250E-01  9.765625E+00  0.000000E+00
  3.906250E-01  1.015625E+01  0.000000E+00
  3.906250E-01  1.054688E+01  0.000000E+00
  3.906250E-01  1.093750E+01  0.000000E+00
  3.906250E-01  1.132812E+01  0.000000E+00
  3.906250E-01  1.171875E+01  0.000000E+00
  3.906250E-01  1.210938E+01  0.000000E+00
  3.906250E-01  1.250000E+01  0.000000E+00
  3.906250E-01  1.289062E+01  0.000000E+00
  3.906250E-01  1.328125E+01  0.000000E+00
  3.906250E-01  1.367188E+01  0.000000E+00
  3.906250E-01  1.406250E+01  0.000000E+00
  3.906250E-01  1.445312E+01  0.000000E+00
  3.906250E-01  1.484375E+01  0.000000E+00
  3.906250E-01  1.523438E+01  0.000000E+00
  3.906250E-01  1.562500E+01  0.000000E+00
  3.906250E-01  1.601562E+01  0.000000E+00
  3.906250E-01  1.640625E+01  0.000000E+00
  3.906250E-01  1.679688E+01  0.000000E+00
  3.906250E-01  1.718750E+01  0.000000E+00
  3.906250E-01  1.757812E+01  0.000000E+00
  3.906250E-01  1.796875E+01  0.000000E+00
  3.906250E-01  1.835938E+01  0.000000E+00
  3.906250E-01  1.875000E+01  0.000000E+00
  3.906250E-01  1.914062E+01  0.000000E+00
  3.906250E-01  1.953125E+01  0.000000E+00
  3.906250E-01  1.992188E+01  0.000000E+00
  3.906250E-01  2.031250E+01  0.000000E+00
  3.906250E-01  2.070312E+01  0.000000E+00
  3.906250E-01  2.109375E+01  0.000000E+00
  3.906250E-01  2.148438E+01  0.000000E+00
  3.906250E-01  2.187500E+01  0.000000E+00
  3.906250E-01  2.226562E+01  0.000000E+00
  3.906250E-01  2.265625E+01  0.000000E+00
  3.906250E-01  2.304688E+01  0.000000E+00
  3.906250E-01  2.343750E+01  0.000000E+00
  3.906250E-01  2.382812E+01  0.000000E+00
  3.906250E-01  2.421875E+01  0.000000E+00
  3.906250E-01  2.460938E+01  0.000000E+00
  7.812500E-01  0.000000E+00  0.000000E+00
  7.812500E-01  3.906250E-01  0.000000E+00
  7.812500E-01  7.812500E-01  0.000000E+00
  7.812500E-01  1.171875E+00  0.000000E+00
  7.812500E-01  1.562500E+00  0.000000E+00
  7.812500E-01  1.953125E+00  0.000000E+00
  7.812500E-01  2.343750E+00  0.000000E+00
  7.812500E-01  2.734375E+00  0.000000E+00
  7.812500E-01  3.125000E+00  0.000000E+00
  7.812500E-01  3.515625E+00  0.000000E+00
  7.812500E-01  3.906250E+00  0.000000E+00
  7.812500E-01  4.296875E+00  0.000000E+00
  7.812500E-01  4.687500E+00  0.000000E+00
  7.812500E-01  5.078125E+00  0.000000E+00
  7.812500E-01  5.468750E+00  0.000000E+00
  7.812500E-01  5.859375E+00  0.000000E+00
  7.812500E-01  6.250000E+00  0.000000E+00
  7.812500E-01  6.640625E+00  0.000000E+00
  7.812500E-01  7.031250E+00  0.000000E+00
  7.812500E-01  7.421875E+00  0.000000E+00
  7.812500E-01  7.812500E+00  0.000000E+00
  7.812500E-01  8.203125E+00  0.000000E+00
  7.812500E-01  8.593750E+00  0.000000E+00
  7.812500E-01  8.984375E+00  0.000000E+00
  7.812500E-01  9.375000E+00  0.000000E+00
  7.812500E-01  9.765625E+00  0.000000E+00
  7.812500E-01  1.015625E+01  0.000000E+00
  7.812500E-01  1.054688E+01  0.000000E+00
  7.812500E-01  1.093750E+01  0.000000E+00
  7.812500E-01  1.132812E+01  0.000000E+00
  7.812500E-01  1.171875E+01  0.000000E+00
  7.812500E-01  1.210938E+01  0.000000E+00
  7.812500E-01  1.250000E+01  0.000000E+00
  7.812500E-01  1.289062E+01  0.000000E+00
  7.812500E-01  1.328125E+01  0.000000E+00
  7.812500E-01  1.367188E+01  0.000000E+00
  7.812500E-01  1.406250E+01  0.000000E+00
  7.812500E-01  1.445312E+01  0.000000E+00
  7.812500E-01  1.484375E+01  0.000000E+00
  7.812500E-01  1.523438E+01  0.000000E+00
  7.812500E-01  1.562500E+01  0.000000E+00
  7.812500E-01  1.601562E+01  0.000000E+00
  7.812500E-01  1.640625E+01  0.000000E+00
  7.812500E-01  1.679688E+01  0.000000E+00
  7.812500E-01  1.718750E+01  0.000000E+00
  7.812500E-01  1.757812E+01  0.000000E+00
  7.812500E-01  1.796875E+01  0.000000E+00
  7.812500E-01  1.835938E+01  0.000000E+00
  7.812500E-01  1.875000E+01  0.000000E+00
  7.812500E-01  1.914062E+01  0.000000E+00
  7.812500E-01  1.953125E+01  0.000000E+00
  7.812500E-01  1.992188E+01  0.000000E+00
  7.812500E-01  2.031250E+01  0.000000E+00
  7.812500E-01  2.070312E+01  0.000000E+00
  7.812500E-01  2.109375E+01  0.000000E+00
  7.812500E-01  2.148438E+01  0.000000E+00
  7.812500E-01  2.187500E+01  0.000000E+00
  7.812500E-01  2.226562E+01  0.000000E+00
  7.812500E-01  2.265625E+01  0.000000E+00
  7.812500E-01  2.304688E+01  0.000000E+00
  7.812500E-01  2.343750E+01  0.000000E+00
  7.812500E-01  2.382812E+01  0.000000E+00
  7.812500E-01  2.421875E+01  0.000000E+00
  7.812500E-01  2.460938E+01  0.000000E+00
  1.171875E+00  0.000000E+00  0.000000E+00
  1.171875E+00  3.906250E-01  0.000000E+00
  1.171875E+00  7.812500E-01  0.000000E+00
  1.171875E+00  1.171875E+00  0.000000E+00
  1.171875E+00  1.562500E+00  0.000000E+00
  1.171875E+00  1.953125E+00  0.000000E+00
  1.171875E+00  2.343750E+00  0.000000E+00
  1.171875E+00  2.734375E+00  0.000000E+00
  1.171875E+00  3.125000E+00  0.000000E+00
  1.171875E+00  3.515625E+00  0.000000E+00
  1.171875E+00  3.906250E+00  0.000000E+00
  1.171875E+00  4.296875E+00  0.000000E+00
  1.171875E+00  4.687500E+00  0.000000E+00
  1.171875E+00  5.078125E+00  0.000000E+00
  1.171875E+00  5.468750E+00  0.000000E+00
  1.171875E+00  5.859375E+00  0.000000E+00
  1.171875E+00  6.250000E+00  0.000000E+00
  1.171875E+00  6.640625E+00  0.000000E+00
  1.171875E+00  7.031250E+00  0.000000E+00
  1.171875E+00  7.421875E+00  0.000000E+00
  1.171875E+00  7.812500E+00  0.000000E+00
  1.171875E+00  8.203125E+00  0.000000E+00
  1.171875E+00  8.593750E+00  0.000000E+00
  1.171875E+00  8.984375E+00  0.000000E+00
  1.171875E+00  9.375000E+00  0.000000E+00
  1.171875E+00  9.765625E+00  0.000000E+00
  1.171875E+00  1.015625E+01  0.000000E+00
  1.171875E+00  1.054688E+01  0.000000E+00
  1.171875E+00  1.093750E+01  0.000000E+00
  1.171875E+00  1.132812E+01  0.000000E+00
  1.171875E+00  1.171875E+01  0.000000E+00
  1.171875E+00  1.210938E+01  0.000000E+00
  1.171875E+00  1.250000E+01  0.000000E+00
  1.171875E+00  1.289062E+01  0.000000E+00
  1.171875E+00  1.328125E+01  0.000000E+00
  1.171875E+00  1.367188E+01  0.000000E+00
  1.171875E+00  1.406250E+01  0.000000E+00
  1.171875E+00  1.445312E+01  0.000000E+00
[...]
POINT_DATA   4096
SCALARS CON  float  1
LOOKUP_TABLE default
  4.701084E-01
  4.688894E-01
  4.734213E-01
  4.723028E-01
  4.730049E-01
  4.675805E-01
  4.682164E-01
  4.672417E-01
  4.720207E-01
  4.705791E-01
  4.713590E-01
  4.670320E-01
  4.685278E-01
  4.665587E-01
  4.691186E-01
  4.669796E-01
  4.702459E-01
  4.698321E-01
  4.733082E-01
  4.702273E-01
  4.702863E-01
  4.658222E-01
  4.666833E-01
  4.635612E-01
  4.652430E-01
  4.623766E-01
  4.643971E-01
  4.632038E-01
  4.685015E-01
  4.695500E-01
  4.725711E-01
  4.676554E-01
  4.668868E-01
  4.645817E-01
  4.696471E-01
  4.695625E-01
  4.712421E-01
  4.664953E-01
  4.665170E-01
  4.631884E-01
  4.655190E-01
  4.635456E-01
  4.655643E-01
  4.626831E-01
  4.650026E-01
  4.633929E-01
  4.664922E-01
  4.660023E-01
  4.718317E-01
  4.726004E-01
  4.741160E-01
  4.676698E-01
  4.662905E-01
  4.634132E-01
  4.678688E-01
  4.695031E-01
  4.762006E-01
  4.764763E-01
  4.777974E-01
  4.724185E-01
  4.723956E-01
  4.695146E-01
  4.715371E-01
  4.683815E-01
  4.705231E-01
  4.701453E-01
  4.758134E-01
  4.767352E-01
  4.767284E-01
  4.693697E-01
  4.667197E-01
  4.647484E-01
  4.692243E-01
  4.689935E-01
  4.701785E-01
  4.675562E-01
  4.700166E-01
  4.689126E-01
  4.698049E-01
  4.662554E-01
  4.681699E-01
  4.690053E-01
  4.739035E-01
  4.727324E-01
  4.721350E-01
  4.665469E-01
  4.657298E-01
  4.635134E-01
  4.664387E-01
  4.654860E-01
  4.672415E-01
  4.653626E-01
  4.685110E-01
  4.689656E-01
  4.719378E-01
  4.688437E-01
  4.684286E-01
  4.656732E-01
  4.681449E-01
  4.668306E-01
  4.680454E-01
  4.651769E-01
  4.666158E-01
  4.650351E-01
  4.667430E-01
  4.635426E-01
  4.632393E-01
  4.600900E-01
  4.622913E-01
  4.617534E-01
  4.651517E-01
  4.662025E-01
  4.728360E-01
  4.749614E-01
  4.760552E-01
  4.692479E-01
  4.667827E-01
  4.650661E-01
  4.707494E-01
  4.736772E-01
  4.788327E-01
  4.773795E-01
  4.764540E-01
  4.707420E-01
  4.704398E-01
  4.689704E-01
  4.716817E-01
  4.694292E-01
  4.649266E-01
  4.689497E-01
  4.756443E-01
  4.776629E-01
  4.760976E-01
  4.698697E-01
  4.669903E-01
  4.661349E-01
  4.689033E-01
  4.693423E-01
  4.702920E-01
  4.693697E-01
  4.705523E-01
  4.698997E-01
  4.701840E-01
  4.685366E-01
  4.696001E-01
  4.702871E-01
  4.727011E-01
  4.719646E-01
  4.712489E-01
  4.680411E-01
  4.667942E-01
  4.648707E-01
  4.657021E-01
  4.650590E-01
  4.655539E-01
  4.642145E-01
  4.654023E-01
  4.655172E-01
  4.665413E-01
  4.645563E-01
  4.644861E-01
  4.647747E-01
  4.683769E-01
  4.694407E-01
  4.697614E-01
  4.668417E-01
  4.659514E-01
  4.644454E-01
  4.649927E-01
  4.630512E-01
  4.617079E-01
  4.587875E-01
  4.594336E-01
  4.606790E-01
  4.649835E-01
  4.683579E-01
  4.737627E-01
  4.757394E-01
  4.751971E-01
  4.696586E-01
  4.667243E-01
  4.658575E-01
  4.697039E-01
  4.728922E-01
  4.773103E-01
  4.777680E-01
  4.761023E-01
  4.698752E-01
  4.656432E-01
  4.621284E-01
  4.622838E-01
  4.618596E-01
  4.648632E-01
  4.700427E-01
  4.750581E-01
  4.781942E-01
  4.743395E-01
  4.684990E-01
  4.631949E-01
  4.634927E-01
  4.652072E-01
  4.681332E-01
  4.689245E-01
  4.709383E-01
  4.717037E-01
  4.725215E-01
  4.702329E-01
  4.688666E-01
  4.679837E-01
  4.704017E-01
  4.717679E-01
  4.728371E-01
  4.709310E-01
  4.698031E-01
  4.681070E-01
  4.687452E-01
  4.686149E-01
  4.692822E-01
  4.675517E-01
  4.663094E-01
  4.642473E-01
  4.650456E-01
  4.659705E-01
  4.681437E-01
  4.678843E-01
  4.679693E-01
  4.666660E-01
  4.667442E-01
  4.654880E-01
  4.658792E-01
  4.661520E-01
  4.683851E-01
  4.679715E-01
  4.662801E-01
  4.625402E-01
  4.621845E-01
  4.631830E-01
  4.660669E-01
  4.667581E-01
  4.685660E-01
  4.701285E-01
  4.728278E-01
  4.714884E-01
  4.686538E-01
  4.654125E-01
  4.673565E-01
  4.709948E-01
  4.758026E-01
  4.771815E-01
  4.769910E-01
  4.727675E-01
  4.684962E-01
  4.640624E-01
  4.632381E-01
  4.625628E-01
  4.636414E-01
  4.620120E-01
  4.699118E-01
  4.725835E-01
  4.756466E-01
  4.696618E-01
  4.668094E-01
  4.616756E-01
  4.639711E-01
  4.633321E-01
  4.677117E-01
  4.677744E-01
  4.718489E-01
  4.701706E-01
  4.717164E-01
  4.683207E-01
  4.699602E-01
  4.681395E-01
  4.713942E-01
  4.697323E-01
  4.717705E-01
  4.691569E-01
  4.712667E-01
  4.684731E-01
  4.692400E-01
  4.652778E-01
  4.665399E-01
  4.638685E-01
  4.653628E-01
  4.620303E-01
  4.640363E-01
  4.631224E-01
  4.672174E-01
  4.657630E-01
  4.678657E-01
  4.658780E-01
  4.688731E-01
  4.665886E-01
  4.678194E-01
  4.650167E-01
  4.677328E-01
  4.654967E-01
  4.661368E-01
  4.620653E-01
  4.646966E-01
  4.653204E-01
  4.704995E-01
  4.688780E-01
  4.697801E-01
  4.664933E-01
  4.689056E-01
  4.665373E-01
  4.673854E-01
  4.639380E-01
  4.668656E-01
  4.667861E-01
  4.714159E-01
  4.711726E-01
  4.743504E-01
  4.708566E-01
  4.696828E-01
  4.633677E-01
  4.623345E-01
  4.582582E-01
  4.608790E-01
  4.660933E-01
  4.714336E-01
  4.712007E-01
  4.739435E-01
  4.678151E-01
  4.657024E-01
  4.594715E-01
  4.613781E-01
  4.599205E-01
  4.651314E-01
  4.652804E-01
  4.705420E-01
  4.689785E-01
  4.710635E-01
  4.665043E-01
  4.680312E-01
  4.660448E-01
  4.711688E-01
  4.706169E-01
  4.739528E-01
  4.703784E-01
  4.718091E-01
  4.674591E-01
  4.680735E-01
  4.633666E-01
  4.656213E-01
  4.637626E-01
  4.670184E-01
  4.636256E-01
  4.664610E-01
  4.664126E-01
  4.727260E-01
  4.706256E-01
  4.703382E-01
  4.641513E-01
  4.658699E-01
  4.639542E-01
  4.678281E-01
  4.664720E-01
  4.706869E-01
  4.675567E-01
  4.673675E-01
  4.623925E-01
  4.672948E-01
  4.699348E-01
  4.762507E-01
  4.720590E-01
  4.701458E-01
  4.638591E-01
  4.662136E-01
  4.643290E-01
  4.668162E-01
  4.632683E-01
  4.666103E-01
  4.657905E-01
  4.700537E-01
  4.675734E-01
  4.698819E-01
  4.667106E-01
  4.693210E-01
  4.665657E-01
  4.689741E-01
  4.654628E-01
  4.677995E-01
  4.652578E-01
  4.693085E-01
  4.686777E-01
  4.703482E-01
  4.664147E-01
  4.664307E-01
  4.631161E-01
  4.643944E-01
  4.621101E-01
  4.652397E-01
  4.655292E-01
  4.693955E-01
  4.672683E-01
  4.680217E-01
  4.652962E-01
  4.682325E-01
  4.683672E-01
  4.728571E-01
  4.723233E-01
  4.743199E-01
  4.712065E-01
  4.717332E-01
  4.671218E-01
  4.650120E-01
  4.589455E-01
  4.599281E-01
  4.602162E-01
  4.652172E-01
  4.643900E-01
  4.668982E-01
  4.667956E-01
  4.715007E-01
  4.698202E-01
  4.695673E-01
  4.658885E-01
  4.690147E-01
  4.688536E-01
  4.711778E-01
  4.682295E-01
  4.694263E-01
  4.661249E-01
  4.659431E-01
  4.625326E-01
  4.665737E-01
  4.694713E-01
  4.756836E-01
  4.736284E-01
  4.718121E-01
  4.656948E-01
  4.662976E-01
  4.647558E-01
  4.669538E-01
  4.641454E-01
  4.654304E-01
  4.630512E-01
  4.649919E-01
  4.632866E-01
  4.664310E-01
  4.660742E-01
  4.697026E-01
  4.681989E-01
  4.691694E-01
  4.652489E-01
  4.663617E-01
  4.671565E-01
  4.675898E-01
  4.672788E-01
  4.694696E-01
  4.685616E-01
  4.686265E-01
  4.661712E-01
  4.660617E-01
  4.644898E-01
  4.661644E-01
  4.666760E-01
  4.691622E-01
  4.682687E-01
  4.683414E-01
  4.664119E-01
  4.680686E-01
  4.694543E-01
  4.739539E-01
  4.754655E-01
  4.765864E-01
  4.731989E-01
  4.711987E-01
  4.672973E-01
  4.654149E-01
  4.617155E-01
  4.622797E-01
  4.634938E-01
  4.674011E-01
  4.675248E-01
  4.692071E-01
  4.706731E-01
  4.752675E-01
  4.748423E-01
  4.724896E-01
  4.676922E-01
  4.683018E-01
  4.691712E-01
  4.716466E-01
  4.708003E-01
  4.716430E-01
  4.694014E-01
  4.678217E-01
  4.647465E-01
  4.671366E-01
  4.701112E-01
  4.742689E-01
  4.727200E-01
  4.706151E-01
  4.668302E-01
  4.674847E-01
  4.671165E-01
  4.678667E-01
  4.656236E-01
  4.664156E-01
  4.663716E-01
  4.681480E-01
  4.662918E-01
  4.658910E-01
  4.646171E-01
  4.675124E-01
  4.690751E-01
  4.716625E-01
  4.703095E-01
  4.698550E-01
  4.624112E-01
  4.639444E-01
  4.651647E-01
  4.682450E-01
  4.691024E-01
  4.709744E-01
  4.708317E-01
  4.713476E-01
  4.695140E-01
  4.698225E-01
  4.696283E-01
  4.707352E-01
  4.688533E-01
  4.682149E-01
  4.674984E-01
  4.701372E-01
  4.718434E-01
  4.747522E-01
  4.749096E-01
  4.748089E-01
  4.716731E-01
  4.700568E-01
  4.673248E-01
  4.659496E-01
  4.629516E-01
  4.632116E-01
  4.643521E-01
  4.677506E-01
  4.680092E-01
  4.686257E-01
  4.685597E-01
  4.712847E-01
  4.715290E-01
  4.716213E-01
  4.704784E-01
  4.727515E-01
  4.734682E-01
  4.734147E-01
  4.699050E-01
  4.683341E-01
  4.664745E-01
  4.668324E-01
  4.657327E-01
  4.666582E-01
  4.667470E-01
  4.686749E-01
  4.683345E-01
  4.687057E-01
  4.676326E-01
  4.690651E-01
  4.690240E-01
  4.693771E-01
  4.672163E-01
  4.672532E-01
  4.670955E-01
  4.690392E-01
  4.685202E-01
  4.683349E-01
  4.663153E-01
  4.666628E-01
  4.659332E-01
  4.662822E-01
  4.642909E-01
  4.637836E-01
  4.631936E-01
  4.634814E-01
  4.649843E-01
  4.689273E-01
  4.702205E-01
  4.712153E-01
  4.702156E-01
  4.706734E-01
  4.698007E-01
  4.705401E-01
  4.702771E-01
  4.713417E-01
  4.702580E-01
  4.698395E-01
  4.681067E-01
  4.686073E-01
  4.689079E-01
  4.716943E-01
  4.730695E-01
  4.738888E-01
  4.707646E-01
  4.683938E-01
  4.661885E-01
  4.670086E-01
  4.670406E-01
  4.688979E-01
  4.698683E-01
  4.716351E-01
  4.702811E-01
  4.695843E-01
  4.690111E-01
  4.715621E-01
  4.720644E-01
  4.717846E-01
  4.695283E-01
  4.701855E-01
  4.704032E-01
  4.709359E-01
  4.686858E-01
  4.678153E-01
  4.663619E-01
  4.669728E-01
  4.667592E-01
  4.682038E-01
  4.675761E-01
  4.671042E-01
  4.648707E-01
  4.652816E-01
  4.663673E-01
  4.699032E-01
  4.708309E-01
  4.706527E-01
  4.680663E-01
  4.687022E-01
  4.706155E-01
  4.741884E-01
  4.735311E-01
  4.710158E-01
  4.665000E-01
  4.654846E-01
  4.654039E-01
  4.672978E-01
  4.666963E-01
  4.658962E-01
  4.608912E-01
  4.623859E-01
  4.642538E-01
  4.673319E-01
  4.684713E-01
  4.701127E-01
  4.705290E-01
  4.713987E-01
  4.703733E-01
  4.705581E-01
  4.703944E-01
  4.710777E-01
  4.694670E-01
  4.683662E-01
  4.669507E-01
  4.676373E-01
  4.678377E-01
  4.696351E-01
  4.705535E-01
  4.714821E-01
  4.694920E-01
  4.677039E-01
  4.654381E-01
  4.653376E-01
  4.652857E-01
  4.676224E-01
  4.696619E-01
  4.718249E-01
  4.705026E-01
  4.684100E-01
  4.655608E-01
  4.655366E-01
  4.657040E-01
  4.673354E-01
  4.683986E-01
  4.709887E-01
  4.714839E-01
  4.705531E-01
  4.664989E-01
  4.635780E-01
  4.617014E-01
  4.636180E-01
  4.657592E-01
  4.679051E-01
  4.668001E-01
  4.656481E-01
  4.641822E-01
  4.656727E-01
  4.677219E-01
  4.709555E-01
  4.713574E-01
  4.705303E-01
  4.677910E-01
  4.674938E-01
  4.684479E-01
  4.716562E-01
  4.726634E-01
  4.723021E-01
  4.693489E-01
  4.678259E-01
  4.661465E-01
  4.655846E-01
  4.633805E-01
  4.621882E-01
  4.642979E-01
  4.642819E-01
  4.650058E-01
  4.677033E-01
  4.685367E-01
  4.693131E-01
  4.682441E-01
  4.681767E-01
  4.671652E-01
  4.679076E-01
  4.681946E-01
  4.696882E-01
  4.690923E-01
  4.683768E-01
  4.660412E-01
  4.656929E-01
  4.659416E-01
  4.691229E-01
  4.716734E-01
  4.736588E-01
  4.714854E-01
  4.686545E-01
  4.652870E-01
  4.650534E-01
  4.656780E-01
  4.689977E-01
  4.715989E-01
  4.738730E-01
  4.722779E-01
  4.701259E-01
  4.674822E-01
  4.677295E-01
  4.673986E-01
  4.674319E-01
  4.659934E-01
  4.666818E-01
  4.670843E-01
  4.680863E-01
  4.665588E-01
  4.653159E-01
  4.632737E-01
  4.639785E-01
  4.654520E-01
  4.685999E-01
  4.690518E-01
  4.686180E-01
  4.666364E-01
  4.673879E-01
  4.688092E-01
  4.713718E-01
  4.706570E-01
  4.688471E-01
  4.658030E-01
  4.661819E-01
  4.679990E-01
  4.716028E-01
  4.722924E-01
  4.718054E-01
  4.695373E-01
  4.696588E-01
  4.697598E-01
  4.705513E-01
  4.687145E-01
  4.669743E-01
  4.625900E-01
  4.648503E-01
  4.650294E-01
  4.673392E-01
  4.675357E-01
  4.697973E-01
  4.690228E-01
  4.690865E-01
  4.664238E-01
  4.670474E-01
  4.669374E-01
  4.689022E-01
  4.671311E-01
  4.666377E-01
  4.648610E-01
  4.669857E-01
  4.679651E-01
  4.712590E-01
  4.719024E-01
  4.736492E-01
  4.715942E-01
  4.702673E-01
  4.660732E-01
  4.644795E-01
  4.623615E-01
  4.648717E-01
  4.669098E-01
  4.707577E-01
  4.701742E-01
  4.695172E-01
  4.661524E-01
  4.661147E-01
  4.650931E-01
  4.667121E-01
  4.664389E-01
  4.687005E-01
  4.683605E-01
  4.688563E-01
  4.658402E-01
  4.646963E-01
  4.623703E-01
  4.640194E-01
  4.646331E-01
  4.671238E-01
  4.665807E-01
  4.680978E-01
  4.678899E-01
  4.701475E-01
  4.698525E-01
  4.705892E-01
  4.676733E-01
  4.663645E-01
  4.636441E-01
  4.644322E-01
  4.641385E-01
  4.669143E-01
  4.679905E-01
  4.709816E-01
  4.709587E-01
  4.721532E-01
  4.698719E-01
  4.683296E-01
  4.641852E-01
  4.635385E-01
  4.660099E-01
  4.672935E-01
  4.664911E-01
  4.686451E-01
  4.685690E-01
  4.699254E-01
  4.675741E-01
  4.668606E-01
  4.642743E-01
  4.652965E-01
  4.650832E-01
  4.673917E-01
  4.664667E-01
  4.668400E-01
  4.649097E-01
  4.665869E-01
  4.671949E-01
  4.705991E-01
  4.714075E-01
  4.737095E-01
  4.720899E-01
  4.711629E-01
  4.672115E-01
  4.661607E-01
  4.639650E-01
  4.654740E-01
  4.657849E-01
  4.687730E-01
  4.686110E-01
  4.697561E-01
  4.685357E-01
  4.703564E-01
  4.695497E-01
  4.695272E-01
  4.661771E-01
  4.660011E-01
  4.649208E-01
  4.668292E-01
  4.664073E-01
  4.682211E-01
  4.672305E-01
  4.679275E-01
  4.661354E-01
  4.672472E-01
  4.666644E-01
  4.686020E-01
  4.678201E-01
  4.688937E-01
  4.672596E-01
  4.674462E-01
  4.646254E-01
  4.643093E-01
  4.630621E-01
  4.657559E-01
  4.665810E-01
  4.691260E-01
  4.684807E-01
  4.698297E-01
  4.689740E-01
  4.704912E-01
  4.690150E-01
  4.690101E-01
  4.665519E-01
  4.671652E-01
  4.659291E-01
  4.674815E-01
  4.668357E-01
  4.670595E-01
  4.674202E-01
  4.690825E-01
  4.691256E-01
  4.686125E-01
  4.665331E-01
  4.658833E-01
  4.654444E-01
  4.660170E-01
  4.650894E-01
  4.650372E-01
  4.655439E-01
  4.681438E-01
  4.693527E-01
  4.698277E-01
  4.690153E-01
  4.700940E-01
  4.709713E-01
  4.715181E-01
  4.691429E-01
  4.664083E-01
  4.630747E-01
  4.617446E-01
  4.612674E-01
  4.633486E-01
  4.650852E-01
  4.664888E-01
  4.658110E-01
  4.661502E-01
  4.664098E-01
  4.675800E-01
  4.676310E-01
  4.683977E-01
  4.678024E-01
  4.672073E-01
  4.657872E-01
  4.663417E-01
  4.670143E-01
  4.681777E-01
  4.671372E-01
  4.660707E-01
  4.649340E-01
  4.661521E-01
  4.668030E-01
  4.670729E-01
  4.653051E-01
  4.641360E-01
  4.627404E-01
  4.635484E-01
  4.649955E-01
  4.675330E-01
  4.679773E-01
  4.680324E-01
  4.672748E-01
  4.680439E-01
  4.679496E-01
  4.675695E-01
  4.650122E-01
  4.631464E-01
  4.620670E-01
  4.640447E-01
  4.723536E-01
  4.700939E-01
  4.684600E-01
  4.667017E-01
  4.676436E-01
  4.673692E-01
  4.679243E-01
  4.668168E-01
  4.669721E-01
  4.655625E-01
  4.655208E-01
  4.645635E-01
  4.654526E-01
  4.653847E-01
  4.673687E-01
  4.684751E-01
  4.701961E-01
  4.692059E-01
  4.695700E-01
  4.699583E-01
  4.721751E-01
  4.714182E-01
  4.700756E-01
  4.668894E-01
  4.655121E-01
  4.631027E-01
  4.628316E-01
  4.628567E-01
  4.652761E-01
  4.656332E-01
  4.664750E-01
  4.664659E-01
  4.684808E-01
  4.683126E-01
  4.681642E-01
  4.663783E-01
  4.663664E-01
  4.653280E-01
  4.664166E-01
  4.672593E-01
  4.694330E-01
  4.687181E-01
  4.681903E-01
  4.668368E-01
  4.680414E-01
  4.678071E-01
  4.673614E-01
  4.642994E-01
  4.631311E-01
  4.621509E-01
  4.636259E-01
  4.644475E-01
  4.676585E-01
  4.700957E-01
  4.726585E-01
  4.711602E-01
  4.689236E-01
  4.651591E-01
  4.638588E-01
  4.622964E-01
  4.631118E-01
  4.641174E-01
  4.680743E-01
  4.706400E-01
  4.738593E-01
  4.714853E-01
  4.691345E-01
  4.656796E-01
  4.661498E-01
  4.661156E-01
  4.682126E-01
  4.678775E-01
  4.686619E-01
  4.669465E-01
  4.668711E-01
  4.647016E-01
  4.645105E-01
  4.637327E-01
  4.672893E-01
  4.701634E-01
  4.731149E-01
  4.710125E-01
  4.698280E-01
  4.685999E-01
  4.709766E-01
  4.704626E-01
  4.693342E-01
  4.650191E-01
  4.631262E-01
  4.604382E-01
  4.611021E-01
  4.617272E-01
  4.648343E-01
  4.641651E-01
  4.634874E-01
  4.618959E-01
  4.649847E-01
  4.675198E-01
  4.710321E-01
  4.707024E-01
  4.702983E-01
  4.667789E-01
  4.655763E-01
  4.640915E-01
  4.657245E-01
  4.654928E-01
  4.668082E-01
  4.664449E-01
  4.685007E-01
  4.681394E-01
  4.677948E-01
  4.641245E-01
  4.631697E-01
  4.624797E-01
  4.651342E-01
  4.662580E-01
  4.693736E-01
  4.700956E-01
  4.709456E-01
  4.677835E-01
  4.658865E-01
  4.630273E-01
  4.629608E-01
  4.610741E-01
  4.615733E-01
  4.621811E-01
  4.671646E-01
  4.707686E-01
  4.778125E-01
  4.740025E-01
  4.704911E-01
  4.673528E-01
  4.667960E-01
  4.653599E-01
  4.650773E-01
  4.645053E-01
  4.659293E-01
  4.660316E-01
  4.663179E-01
  4.648032E-01
  4.643681E-01
  4.635864E-01
  4.655356E-01
  4.676512E-01
  4.703314E-01
  4.699493E-01
  4.695549E-01
  4.685804E-01
  4.693872E-01
  4.684319E-01
  4.674780E-01
  4.652712E-01
  4.648247E-01
  4.637411E-01
  4.644479E-01
  4.651782E-01
  4.671970E-01
  4.665473E-01
  4.660566E-01
  4.660797E-01
  4.694852E-01
  4.714875E-01
  4.720644E-01
  4.694334E-01
  4.676005E-01
  4.655221E-01
  4.658742E-01
  4.659670E-01
  4.667975E-01
  4.657233E-01
  4.664898E-01
  4.681445E-01
  4.714335E-01
  4.709933E-01
  4.680776E-01
  4.630889E-01
  4.618314E-01
  4.628325E-01
  4.660905E-01
  4.673421E-01
  4.690632E-01
  4.697428E-01
  4.707415E-01
  4.685367E-01
  4.660503E-01
  4.630803E-01
  4.627959E-01
  4.625095E-01
  4.645564E-01
  4.675861E-01
  4.733755E-01
  4.769276E-01
  4.736367E-01
  4.719460E-01
  4.697181E-01
  4.668576E-01
  4.661528E-01
  4.652043E-01
  4.653736E-01
  4.646899E-01
  4.653293E-01
  4.652989E-01
  4.660096E-01
  4.647345E-01
  4.634859E-01
  4.618705E-01
  4.634078E-01
  4.655754E-01
  4.679918E-01
  4.671907E-01
  4.659207E-01
  4.642896E-01
  4.653766E-01
  4.663461E-01
  4.674418E-01
  4.661313E-01
  4.651317E-01
  4.635520E-01
  4.642571E-01
  4.655176E-01
  4.677825E-01
  4.670747E-01
  4.659125E-01
  4.653212E-01
  4.685239E-01
  4.713427E-01
  4.729602E-01
  4.710011E-01
  4.688639E-01
  4.660944E-01
  4.652865E-01
  4.643156E-01
  4.647132E-01
  4.645555E-01
  4.662516E-01
  4.678287E-01
  4.700249E-01
  4.691800E-01
  4.668546E-01
  4.629292E-01
  4.618664E-01
  4.624186E-01
  4.650782E-01
  4.663301E-01
  4.678308E-01
  4.676837E-01
  4.674382E-01
  4.654286E-01
  4.652327E-01
  4.659454E-01
  4.682785E-01
  4.683193E-01
  4.680263E-01
  4.673825E-01
  4.696416E-01
  4.718353E-01
  4.727041E-01
  4.696947E-01
  4.695507E-01
  4.670275E-01
  4.677386E-01
  4.650100E-01
  4.648708E-01
  4.621297E-01
  4.632337E-01
  4.620393E-01
  4.641765E-01
  4.634207E-01
  4.654032E-01
  4.639565E-01
  4.652173E-01
  4.634824E-01
  4.647416E-01
  4.628864E-01
  4.638558E-01
  4.621184E-01
  4.644406E-01
  4.651009E-01
  4.690929E-01
  4.690380E-01
  4.703640E-01
  4.679098E-01
  4.690846E-01
  4.684687E-01
  4.708500E-01
  4.690279E-01
  4.698852E-01
  4.693591E-01
  4.729805E-01
  4.719576E-01
  4.707980E-01
  4.654675E-01
  4.647790E-01
  4.635208E-01
  4.664588E-01
  4.662038E-01
  4.679744E-01
  4.661687E-01
  4.680810E-01
  4.682805E-01
  4.710649E-01
  4.683479E-01
  4.663468E-01
  4.615599E-01
  4.619443E-01
  4.614131E-01
  4.644829E-01
  4.642356E-01
  4.669221E-01
  4.669658E-01
  4.697214E-01
  4.685965E-01
  4.702700E-01
  4.698813E-01
  4.730564E-01
  4.724217E-01
  4.734672E-01
  4.712762E-01
  4.728147E-01
  4.716854E-01
  4.672375E-01
  4.658761E-01
  4.685253E-01
  4.657278E-01
  4.677424E-01
  4.654509E-01
  4.678910E-01
  4.645621E-01
  4.650929E-01
  4.613785E-01
  4.640739E-01
  4.630961E-01
  4.669072E-01
  4.656985E-01
  4.689720E-01
  4.664814E-01
  4.673016E-01
  4.625240E-01
  4.628943E-01
  4.599996E-01
  4.641885E-01
  4.653622E-01
  4.708110E-01
  4.690140E-01
  4.699180E-01
  4.661119E-01
  4.687832E-01
  4.680350E-01
  4.714110E-01
  4.679534E-01
  4.684387E-01
  4.657543E-01
  4.696486E-01
  4.682717E-01
  4.697167E-01
  4.655528E-01
  4.669509E-01
  4.643293E-01
  4.663428E-01
  4.634976E-01
  4.662311E-01
  4.652438E-01
  4.692624E-01
  4.677018E-01
  4.696438E-01
  4.658500E-01
  4.667230E-01
  4.633840E-01
  4.653431E-01