# vtk DataFile Version 2.0
title
ASCII
DATASET STRUCTURED_GRID
DIMENSIONS   64   64    1
POINTS   4096  float
  0.000000E+00  0.000000E+00  0.000000E+00
  0.000000E+00  3.906250E-01  0.000000E+00
  0.000000E+00  7.812500E-01  0.000000E+00
  0.000000E+00  1.171875E+00  0.000000E+00
  0.000000E+00  1.562500E+00  0.000000E+00
  0.000000E+00  1.953125E+00  0.000000E+00
  0.000000E+00  2.343750E+00  0.000000E+00
  0.000000E+00  2.734375E+00  0.000000E+00
  0.000000E+00  3.125000E+00  0.000000E+00
  0.000000E+00  3.515625E+00  0.000000E+00
  0.000000E+00  3.906250E+00  0.000000E+00
  0.000000E+00  4.296875E+00  0.000000E+00
  0.000000E+00  4.687500E+00  0.000000E+00
  0.000000E+00  5.078125E+00  0.000000E+00
  0.000000E+00  5.468750E+00  0.000000E+00
  0.000000E+00  5.859375E+00  0.000000E+00
  0.000000E+00  6.250000E+00  0.000000E+00
  0.000000E+00  6.640625E+00  0.000000E+00
  0.000000E+00  7.031250E+00  0.000000E+00
  0.000000E+00  7.421875E+00  0.000000E+00
  0.000000E+00  7.812500E+00  0.000000E+00
  0.000000E+00  8.203125E+00  0.000000E+00
  0.000000E+00  8.593750E+00  0.000000E+00
  0.000000E+00  8.984375E+00  0.000000E+00
  0.000000E+00  9.375000E+00  0.000000E+00
  0.000000E+00  9.765625E+00  0.000000E+00
  0.000000E+00  1.015625E+01  0.000000E+00
  0.000000E+00  1.054688E+01  0.000000E+00
  0.000000E+00  1.093750E+01  0.000000E+00
  0.000000E+00  1.132812E+01  0.000000E+00
  0.000000E+00  1.171875E+01  0.000000E+00
  0.000000E+00  1.210938E+01  0.000000E+00
  0.000000E+00  1.250000E+01  0.000000E+00
  0.000000E+00  1.289062E+01  0.000000E+00
  0.000000E+00  1.328125E+01  0.000000E+00
  0.000000E+00  1.367188E+01  0.000000E+00
  0.000000E+00  1.406250E+01  0.000000E+00
  0.000000E+00  1.445312E+01  0.000000E+00
  0.000000E+00  1.484375E+01  0.000000E+00
  0.000000E+00  1.523438E+01  0.000000E+00
  0.000000E+00  1.562500E+01  0.000000E+00
  0.000000E+00  1.601562E+01  0.000000E+00
  0.000000E+00  1.640625E+01  0.000000E+00
  0.000000E+00  1.679688E+01  0.000000E+00
  0.000000E+00  1.718750E+01  0.000000E+00
  0.000000E+00  1.757812E+01  0.000000E+00
  0.000000E+00  1.796875E+01  0.000000E+00
  0.000000E+00  1.835938E+01  0.000000E+00
  0.000000E+00  1.875000E+01  0.000000E+00
  0.000000E+00  1.914062E+01  0.000000E+00
  0.000000E+00  1.953125E+01  0.000000E+00
  0.000000E+00  1.992188E+01  0.000000E+00
  0.000000E+00  2.031250E+01  0.000000E+00
  0.000000E+00  2.070312E+01  0.000000E+00
  0.000000E+00  2.109375E+01  0.000000E+00
  0.000000E+00  2.148438E+01  0.000000E+00
  0.000000E+00  2.187500E+01  0.000000E+00
  0.000000E+00  2.226562E+01  0.000000E+00
  0.000000E+00  2.265625E+01  0.000000E+00
  0.000000E+00  2.304688E+01  0.000000E+00
  0.000000E+00  2.343750E+01  0.000000E+00
  0.000000E+00  2.382812E+01  0.000000E+00
  0.000000E+00  2.421875E+01  0.000000E+00
  0.000000E+00  2.460938E+01  0.000000E+00
  3.906250E-01  0.000000E+00  0.000000E+00
  3.906250E-01  3.906250E-01  0.000000E+00
  3.906250E-01  7.812500E-01  0.000000E+00
  3.906250E-01  1.171875E+00  0.000000E+00
  3.906250E-01  1.562500E+00  0.000000E+00
  3.906250E-01  1.953125E+00  0.000000E+00
  3.906250E-01  2.343750E+00  0.000000E+00
  3.906250E-01  2.734375E+00  0.000000E+00
  3.906250E-01  3.125000E+00  0.000000E+00
  3.906250E-01  3.515625E+00  0.000000E+00
  3.906250E-01  3.906250E+00  0.000000E+00
  3.906250E-01  4.296875E+00  0.000000E+00
  3.906250E-01  4.687500E+00  0.000000E+00
  3.906250E-01  5.078125E+00  0.000000E+00
  3.906250E-01  5.468750E+00  0.000000E+00
  3.906250E-01  5.859375E+00  0.000000E+00
  3.906250E-01  6.250000E+00  0.000000E+00
  3.906250E-01  6.640625E+00  0.000000E+00
  3.906250E-01  7.031250E+00  0.000000E+00
  3.906250E-01  7.421875E+00  0.000000E+00
  3.906250E-01  7.812500E+00  0.000000E+00
  3.906250E-01  8.203125E+00  0.000000E+00
  3.906250E-01  8.593750E+00  0.000000E+00
  3.906250E-01  8.984375E+00  0.000000E+00
  3.906250E-01  9.375000E+00  0.000000E+00
  3.906250E-01  9.765625E+00  0.000000E+00
  3.906250E-01  1.015625E+01  0.000000E+00
  3.906250E-01  1.054688E+01  0.000000E+00
  3.906250E-01  1.093750E+01  0.000000E+00
  3.906250E-01  1.132812E+01  0.000000E+00
  3.906250E-01  1.171875E+01  0.000000E+00
  3.906250E-01  1.210938E+01  0.000000E+00
  3.906250E-01  1.250000E+01  0.000000E+00
  3.906250E-01  1.289062E+01  0.000000E+00
  3.906250E-01  1.328125E+01  0.000000E+00
  3.906250E-01  1.367188E+01  0.000000E+00
  3.906250E-01  1.406250E+01  0.000000E+00
  3.906250E-01  1.445312E+01  0.000000E+00
  3.906250E-01  1.484375E+01  0.000000E+00
  3.906250E-01  1.523438E+01  0.000000E+00
  3.906250E-01  1.562500E+01  0.000000E+00
  3.906250E-01  1.601562E+01  0.000000E+00
  3.906250E-01  1.640625E+01  0.000000E+00
  3.906250E-01  1.679688E+01  0.000000E+00
  3.906250E-01  1.718750E+01  0.000000E+00
  3.906250E-01  1.757812E+01  0.000000E+00
  3.906250E-01  1.796875E+01  0.000000E+00
  3.906250E-01  1.835938E+01  0.000000E+00
  3.906250E-01  1.875000E+01  0.000000E+00
  3.906250E-01  1.914062E+01  0.000000E+00
  3.906250E-01  1.953125E+01  0.000000E+00
  3.906250E-01  1.992188E+01  0.000000E+00
  3.906250E-01  2.031250E+01  0.000000E+00
  3.906250E-01  2.070312E+01  0.000000E+00
  3.906250E-01  2.109375E+01  0.000000E+00
  3.906250E-01  2.148438E+01  0.000000E+00
  3.906250E-01  2.187500E+01  0.000000E+00
  3.906250E-01  2.226562E+01  0.000000E+00
  3.906250E-01  2.265625E+01  0.000000E+00
  3.906250E-01  2.304688E+01  0.000000E+00
  3.906250E-01  2.343750E+01  0.000000E+00
  3.906250E-01  2.382812E+01  0.000000E+00
  3.906250E-01  2.421875E+01  0.000000E+00
  3.906250E-01  2.460938E+01  0.000000E+00
  7.812500E-01  0.000000E+00  0.000000E+00
  7.812500E-01  3.906250E-01  0.000000E+00
  7.812500E-01  7.812500E-01  0.000000E+00
  7.812500E-01  1.171875E+00  0.000000E+00
  7.812500E-01  1.562500E+00  0.000000E+00
  7.812500E-01  1.953125E+00  0.000000E+00
  7.812500E-01  2.343750E+00  0.000000E+00
  7.812500E-01  2.734375E+00  0.000000E+00
  7.812500E-01  3.125000E+00  0.000000E+00
  7.812500E-01  3.515625E+00  0.000000E+00
  7.812500E-01  3.906250E+00  0.000000E+00
  7.812500E-01  4.296875E+00  0.000000E+00
  7.812500E-01  4.687500E+00  0.000000E+00
  7.812500E-01  5.078125E+00  0.000000E+00
  7.812500E-01  5.468750E+00  0.000000E+00
  7.812500E-01  5.859375E+00  0.000000E+00
  7.812500E-01  6.250000E+00  0.000000E+00
  7.812500E-01  6.640625E+00  0.000000E+00
  7.812500E-01  7.031250E+00  0.000000E+00
  7.812500E-01  7.421875E+00  0.000000E+00
  7.812500E-01  7.812500E+00  0.000000E+00
  7.812500E-01  8.203125E+00  0.000000E+00
  7.812500E-01  8.593750E+00  0.000000E+00
  7.812500E-01  8.984375E+00  0.000000E+00
  7.812500E-01  9.375000E+00  0.000000E+00
  7.812500E-01  9.765625E+00  0.000000E+00
  7.812500E-01  1.015625E+01  0.000000E+00
  7.812500E-01  1.054688E+01  0.000000E+00
  7.812500E-01  1.093750E+01  0.000000E+00
  7.812500E-01  1.132812E+01  0.000000E+00
  7.812500E-01  1.171875E+01  0.000000E+00
  7.812500E-01  1.210938E+01  0.000000E+00
  7.812500E-01  1.250000E+01  0.000000E+00
  7.812500E-01  1.289062E+01  0.000000E+00
  7.812500E-01  1.328125E+01  0.000000E+00
  7.812500E-01  1.367188E+01  0.000000E+00
  7.812500E-01  1.406250E+01  0.000000E+00
  7.812500E-01  1.445312E+01  0.000000E+00
  7.812500E-01  1.484375E+01  0.000000E+00
  7.812500E-01  1.523438E+01  0.000000E+00
  7.812500E-01  1.562500E+01  0.000000E+00
  7.812500E-01  1.601562E+01  0.000000E+00
  7.812500E-01  1.640625E+01  0.000000E+00
  7.812500E-01  1.679688E+01  0.000000E+00
  7.812500E-01  1.718750E+01  0.000000E+00
  7.812500E-01  1.757812E+01  0.000000E+00
  7.812500E-01  1.796875E+01  0.000000E+00
  7.812500E-01  1.835938E+01  0.000000E+00
  7.812500E-01  1.875000E+01  0.000000E+00
  7.812500E-01  1.914062E+01  0.000000E+00
  7.812500E-01  1.953125E+01  0.000000E+00
  7.812500E-01  1.992188E+01  0.000000E+00
  7.812500E-01  2.031250E+01  0.000000E+00
  7.812500E-01  2.070312E+01  0.000000E+00
  7.812500E-01  2.109375E+01  0.000000E+00
  7.812500E-01  2.148438E+01  0.000000E+00
  7.812500E-01  2.187500E+01  0.000000E+00
  7.812500E-01  2.226562E+01  0.000000E+00
  7.812500E-01  2.265625E+01  0.000000E+00
  7.812500E-01  2.304688E+01  0.000000E+00
  7.812500E-01  2.343750E+01  0.000000E+00
  7.812500E-01  2.382812E+01  0.000000E+00
  7.812500E-01  2.421875E+01  0.000000E+00
  7.812500E-01  2.460938E+01  0.000000E+00
  1.171875E+00  0.000000E+00  0.000000E+00
  1.171875E+00  3.906250E-01  0.000000E+00
  1.171875E+00  7.812500E-01  0.000000E+00
  1.171875E+00  1.171875E+00  0.000000E+00
  1.171875E+00  1.562500E+00  0.000000E+00
  1.171875E+00  1.953125E+00  0.000000E+00
  1.171875E+00  2.343750E+00  0.000000E+00
  1.171875E+00  2.734375E+00  0.000000E+00
  1.171875E+00  3.125000E+00  0.000000E+00
  1.171875E+00  3.515625E+00  0.000000E+00
  1.171875E+00  3.906250E+00  0.000000E+00
  1.171875E+00  4.296875E+00  0.000000E+00
  1.171875E+00  4.687500E+00  0.000000E+00
  1.171875E+00  5.078125E+00  0.000000E+00
  1.171875E+00  5.468750E+00  0.000000E+00
  1.171875E+00  5.859375E+00  0.000000E+00
  1.171875E+00  6.250000E+00  0.000000E+00
  1.171875E+00  6.640625E+00  0.000000E+00
  1.171875E+00  7.031250E+00  0.000000E+00
  1.171875E+00  7.421875E+00  0.000000E+00
  1.171875E+00  7.812500E+00  0.000000E+00
  1.171875E+00  8.203125E+00  0.000000E+00
  1.171875E+00  8.593750E+00  0.000000E+00
  1.171875E+00  8.984375E+00  0.000000E+00
  1.171875E+00  9.375000E+00  0.000000E+00
  1.171875E+00  9.765625E+00  0.000000E+00
  1.171875E+00  1.015625E+01  0.000000E+00
  1.171875E+00  1.054688E+01  0.000000E+00
  1.171875E+00  1.093750E+01  0.000000E+00
  1.171875E+00  1.132812E+01  0.000000E+00
  1.171875E+00  1.171875E+01  0.000000E+00
  1.171875E+00  1.210938E+01  0.000000E+00
  1.171875E+00  1.250000E+01  0.000000E+00
  1.171875E+00  1.289062E+01  0.000000E+00
  1.171875E+00  1.328125E+01  0.000000E+00
  1.171875E+00  1.367188E+01  0.000000E+00
  1.171875E+00  1.406250E+01  0.000000E+00
  1.171875E+00  1.445312E+01  0.000000E+00
[...]
POINT_DATA   4096
SCALARS CON  float  1
LOOKUP_TABLE default
  4.695076E-01
  4.685112E-01
  4.710046E-01
  4.695497E-01
  4.712981E-01
  4.691335E-01
  4.704496E-01
  4.682028E-01
  4.696977E-01
  4.677272E-01
  4.694652E-01
  4.676694E-01
  4.695653E-01
  4.679833E-01
  4.701681E-01
  4.688803E-01
  4.712292E-01
  4.698405E-01
  4.717617E-01
  4.696707E-01
  4.707715E-01
  4.679521E-01
  4.686086E-01
  4.657390E-01
  4.667331E-01
  4.644712E-01
  4.661587E-01
  4.644927E-01
  4.665630E-01
  4.650546E-01
  4.671376E-01
  4.656153E-01
  4.677426E-01
  4.663247E-01
  4.685351E-01
  4.670618E-01
  4.689964E-01
  4.670348E-01
  4.683760E-01
  4.658877E-01
  4.669428E-01
  4.645261E-01
  4.660335E-01
  4.643710E-01
  4.667686E-01
  4.659131E-01
  4.688147E-01
  4.680052E-01
  4.704696E-01
  4.688780E-01
  4.704916E-01
  4.683014E-01
  4.698006E-01
  4.680088E-01
  4.702125E-01
  4.690683E-01
  4.715060E-01
  4.700050E-01
  4.715939E-01
  4.690927E-01
  4.699599E-01
  4.673356E-01
  4.687404E-01
  4.670914E-01
  4.713461E-01
  4.707477E-01
  4.720536E-01
  4.706648E-01
  4.710575E-01
  4.689809E-01
  4.691538E-01
  4.673678E-01
  4.681841E-01
  4.671280E-01
  4.685171E-01
  4.677615E-01
  4.692194E-01
  4.684398E-01
  4.699153E-01
  4.692371E-01
  4.708233E-01
  4.701219E-01
  4.714285E-01
  4.701689E-01
  4.707440E-01
  4.687767E-01
  4.688798E-01
  4.668222E-01
  4.672459E-01
  4.658265E-01
  4.670261E-01
  4.663112E-01
  4.679679E-01
  4.673679E-01
  4.688077E-01
  4.677667E-01
  4.687067E-01
  4.672707E-01
  4.680219E-01
  4.666087E-01
  4.675099E-01
  4.662471E-01
  4.671969E-01
  4.658574E-01
  4.666756E-01
  4.652811E-01
  4.662465E-01
  4.652514E-01
  4.668037E-01
  4.664158E-01
  4.683894E-01
  4.680824E-01
  4.697709E-01
  4.689414E-01
  4.701079E-01
  4.689994E-01
  4.702597E-01
  4.695631E-01
  4.713281E-01
  4.709343E-01
  4.725800E-01
  4.716141E-01
  4.724205E-01
  4.706733E-01
  4.710746E-01
  4.694635E-01
  4.704761E-01
  4.696790E-01
  4.680297E-01
  4.687582E-01
  4.698868E-01
  4.700952E-01
  4.703040E-01
  4.695960E-01
  4.692268E-01
  4.684171E-01
  4.683423E-01
  4.680091E-01
  4.683768E-01
  4.683371E-01
  4.688627E-01
  4.689348E-01
  4.696030E-01
  4.698439E-01
  4.706112E-01
  4.707448E-01
  4.711005E-01
  4.705254E-01
  4.700048E-01
  4.686003E-01
  4.675227E-01
  4.659890E-01
  4.652409E-01
  4.643944E-01
  4.644975E-01
  4.644521E-01
  4.651461E-01
  4.654215E-01
  4.662068E-01
  4.664399E-01
  4.671368E-01
  4.672653E-01
  4.678047E-01
  4.676546E-01
  4.677525E-01
  4.670297E-01
  4.665390E-01
  4.653794E-01
  4.647647E-01
  4.638884E-01
  4.639534E-01
  4.640303E-01
  4.651129E-01
  4.660251E-01
  4.675435E-01
  4.683741E-01
  4.693274E-01
  4.693063E-01
  4.694307E-01
  4.689172E-01
  4.690730E-01
  4.690794E-01
  4.699776E-01
  4.705523E-01
  4.714910E-01
  4.714392E-01
  4.712442E-01
  4.699605E-01
  4.689240E-01
  4.675426E-01
  4.672102E-01
  4.670670E-01
  4.694629E-01
  4.705973E-01
  4.704227E-01
  4.707225E-01
  4.695246E-01
  4.690071E-01
  4.675013E-01
  4.672756E-01
  4.665142E-01
  4.671846E-01
  4.671631E-01
  4.682378E-01
  4.682920E-01
  4.692635E-01
  4.692160E-01
  4.701836E-01
  4.701883E-01
  4.711186E-01
  4.708433E-01
  4.711904E-01
  4.701122E-01
  4.696412E-01
  4.679736E-01
  4.673284E-01
  4.659622E-01
  4.660130E-01
  4.655481E-01
  4.664716E-01
  4.666414E-01
  4.678317E-01
  4.678802E-01
  4.686488E-01
  4.681364E-01
  4.683820E-01
  4.675154E-01
  4.676175E-01
  4.667683E-01
  4.669473E-01
  4.661439E-01
  4.663121E-01
  4.654966E-01
  4.657539E-01
  4.652156E-01
  4.659467E-01
  4.659832E-01
  4.672185E-01
  4.675109E-01
  4.686544E-01
  4.685440E-01
  4.691458E-01
  4.685971E-01
  4.690708E-01
  4.687744E-01
  4.697682E-01
  4.700014E-01
  4.712413E-01
  4.712462E-01
  4.717923E-01
  4.708581E-01
  4.705665E-01
  4.692231E-01
  4.691161E-01
  4.684791E-01
  4.693131E-01
  4.660102E-01
  4.682116E-01
  4.679839E-01
  4.696893E-01
  4.685411E-01
  4.693045E-01
  4.675483E-01
  4.682042E-01
  4.667796E-01
  4.679869E-01
  4.670890E-01
  4.686477E-01
  4.679166E-01
  4.695496E-01
  4.689016E-01
  4.706519E-01
  4.700753E-01
  4.717066E-01
  4.706983E-01
  4.715675E-01
  4.695888E-01
  4.695108E-01
  4.668672E-01
  4.665965E-01
  4.642837E-01
  4.647658E-01
  4.634171E-01
  4.648361E-01
  4.642129E-01
  4.660666E-01
  4.656125E-01
  4.674551E-01
  4.668922E-01
  4.685616E-01
  4.677387E-01
  4.690156E-01
  4.676525E-01
  4.682969E-01
  4.663389E-01
  4.665942E-01
  4.645971E-01
  4.652247E-01
  4.639586E-01
  4.655151E-01
  4.651480E-01
  4.673419E-01
  4.671814E-01
  4.690999E-01
  4.682754E-01
  4.693641E-01
  4.678339E-01
  4.685983E-01
  4.672467E-01
  4.686126E-01
  4.680140E-01
  4.699196E-01
  4.693405E-01
  4.706403E-01
  4.689943E-01
  4.691502E-01
  4.667367E-01
  4.668308E-01
  4.651195E-01
  4.664341E-01
  4.675929E-01
  4.697199E-01
  4.685353E-01
  4.699624E-01
  4.678913E-01
  4.685892E-01
  4.662279E-01
  4.671766E-01
  4.654924E-01
  4.672761E-01
  4.662939E-01
  4.684678E-01
  4.675627E-01
  4.696431E-01
  4.686520E-01
  4.707490E-01
  4.698291E-01
  4.718915E-01
  4.706601E-01
  4.720660E-01
  4.699275E-01
  4.704083E-01
  4.676055E-01
  4.678946E-01
  4.654377E-01
  4.665119E-01
  4.650614E-01
  4.671035E-01
  4.663588E-01
  4.687135E-01
  4.678728E-01
  4.698140E-01
  4.684025E-01
  4.697887E-01
  4.679682E-01
  4.691413E-01
  4.672705E-01
  4.684754E-01
  4.666448E-01
  4.678762E-01
  4.660972E-01
  4.674739E-01
  4.659782E-01
  4.677502E-01
  4.666585E-01
  4.686987E-01
  4.676202E-01
  4.693887E-01
  4.678407E-01
  4.691232E-01
  4.672774E-01
  4.685903E-01
  4.671104E-01
  4.689836E-01
  4.680196E-01
  4.701252E-01
  4.689749E-01
  4.705086E-01
  4.685975E-01
  4.694669E-01
  4.672483E-01
  4.682955E-01
  4.666808E-01
  4.685279E-01
  4.644987E-01
  4.671097E-01
  4.663499E-01
  4.687275E-01
  4.673214E-01
  4.689464E-01
  4.669796E-01
  4.684015E-01
  4.665762E-01
  4.683358E-01
  4.668634E-01
  4.688777E-01
  4.675583E-01
  4.696988E-01
  4.685515E-01
  4.709038E-01
  4.698989E-01
  4.721586E-01
  4.706947E-01
  4.721197E-01
  4.695942E-01
  4.699990E-01
  4.667860E-01
  4.670388E-01
  4.642476E-01
  4.653607E-01
  4.636192E-01
  4.657070E-01
  4.646787E-01
  4.671574E-01
  4.662493E-01
  4.686820E-01
  4.676481E-01
  4.698985E-01
  4.685887E-01
  4.704170E-01
  4.685296E-01
  4.696974E-01
  4.672151E-01
  4.680282E-01
  4.655624E-01
  4.667921E-01
  4.650501E-01
  4.671208E-01
  4.661077E-01
  4.685972E-01
  4.675834E-01
  4.696641E-01
  4.679647E-01
  4.692997E-01
  4.670357E-01
  4.681767E-01
  4.661567E-01
  4.678879E-01
  4.665710E-01
  4.688196E-01
  4.675853E-01
  4.693906E-01
  4.673083E-01
  4.681628E-01
  4.653975E-01
  4.661269E-01
  4.638800E-01
  4.656098E-01
  4.665239E-01
  4.685229E-01
  4.672824E-01
  4.689523E-01
  4.672041E-01
  4.684037E-01
  4.664224E-01
  4.677200E-01
  4.661153E-01
  4.679019E-01
  4.667092E-01
  4.687180E-01
  4.675736E-01
  4.695739E-01
  4.684914E-01
  4.706632E-01
  4.697686E-01
  4.719597E-01
  4.707442E-01
  4.722273E-01
  4.700471E-01
  4.705802E-01
  4.677687E-01
  4.682005E-01
  4.658545E-01
  4.671752E-01
  4.658812E-01
  4.681362E-01
  4.674460E-01
  4.698796E-01
  4.689722E-01
  4.709160E-01
  4.694132E-01
  4.708136E-01
  4.689229E-01
  4.701200E-01
  4.681743E-01
  4.693970E-01
  4.675025E-01
  4.687896E-01
  4.670022E-01
  4.684795E-01
  4.669742E-01
  4.687766E-01
  4.675396E-01
  4.694436E-01
  4.680770E-01
  4.696408E-01
  4.678339E-01
  4.690203E-01
  4.670501E-01
  4.683634E-01
  4.667748E-01
  4.685857E-01
  4.674199E-01
  4.694099E-01
  4.680996E-01
  4.696624E-01
  4.677884E-01
  4.688486E-01
  4.667100E-01
  4.678370E-01
  4.660742E-01
  4.677540E-01
  4.638474E-01
  4.659613E-01
  4.654951E-01
  4.677979E-01
  4.671090E-01
  4.689436E-01
  4.677456E-01
  4.691843E-01
  4.677599E-01
  4.691132E-01
  4.676857E-01
  4.690879E-01
  4.677812E-01
  4.694186E-01
  4.684693E-01
  4.705100E-01
  4.698484E-01
  4.718722E-01
  4.707645E-01
  4.719324E-01
  4.697458E-01
  4.699133E-01
  4.671110E-01
  4.672385E-01
  4.649737E-01
  4.660337E-01
  4.648086E-01
  4.667399E-01
  4.660536E-01
  4.681788E-01
  4.674476E-01
  4.694309E-01
  4.685547E-01
  4.703919E-01
  4.692962E-01
  4.707587E-01
  4.691139E-01
  4.699348E-01
  4.677222E-01
  4.682345E-01
  4.660967E-01
  4.670725E-01
  4.656653E-01
  4.674326E-01
  4.666573E-01
  4.687328E-01
  4.678799E-01
  4.695418E-01
  4.680797E-01
  4.691264E-01
  4.672297E-01
  4.681535E-01
  4.664797E-01
  4.678905E-01
  4.667852E-01
  4.686161E-01
  4.675858E-01
  4.690626E-01
  4.673241E-01
  4.679605E-01
  4.655446E-01
  4.659263E-01
  4.638012E-01
  4.649533E-01
  4.662204E-01
  4.675738E-01
  4.667822E-01
  4.682000E-01
  4.672957E-01
  4.685068E-01
  4.674092E-01
  4.685192E-01
  4.674271E-01
  4.686021E-01
  4.675693E-01
  4.687705E-01
  4.677693E-01
  4.690884E-01
  4.683484E-01
  4.700383E-01
  4.696352E-01
  4.714259E-01
  4.707291E-01
  4.718153E-01
  4.701666E-01
  4.703475E-01
  4.681468E-01
  4.683218E-01
  4.666633E-01
  4.677461E-01
  4.670744E-01
  4.689420E-01
  4.686697E-01
  4.705071E-01
  4.698563E-01
  4.711232E-01
  4.698798E-01
  4.706647E-01
  4.691164E-01
  4.697723E-01
  4.682233E-01
  4.689469E-01
  4.674944E-01
  4.683390E-01
  4.670538E-01
  4.681312E-01
  4.671307E-01
  4.684873E-01
  4.676755E-01
  4.690563E-01
  4.680817E-01
  4.691625E-01
  4.678606E-01
  4.687158E-01
  4.673861E-01
  4.684323E-01
  4.674479E-01
  4.688661E-01
  4.681380E-01
  4.695934E-01
  4.686557E-01
  4.697091E-01
  4.682900E-01
  4.689146E-01
  4.672303E-01
  4.678158E-01
  4.663214E-01
  4.672721E-01
  4.638458E-01
  4.653534E-01
  4.653103E-01
  4.672876E-01
  4.673195E-01
  4.690339E-01
  4.685875E-01
  4.697425E-01
  4.687641E-01
  4.694866E-01
  4.682251E-01
  4.688576E-01
  4.677354E-01
  4.687414E-01
  4.681672E-01
  4.697540E-01
  4.695923E-01
  4.712279E-01
  4.706451E-01
  4.714375E-01
  4.697989E-01
  4.696331E-01
  4.674324E-01
  4.672719E-01
  4.656211E-01
  4.663514E-01
  4.656367E-01
  4.670831E-01
  4.667302E-01
  4.682118E-01
  4.677095E-01
  4.690179E-01
  4.684065E-01
  4.696467E-01
  4.689049E-01
  4.698486E-01
  4.686199E-01
  4.689776E-01
  4.672417E-01
  4.673581E-01
  4.657573E-01
  4.663673E-01
  4.654783E-01
  4.668112E-01
  4.664590E-01
  4.680197E-01
  4.675670E-01
  4.687739E-01
  4.678488E-01
  4.686156E-01
  4.674108E-01
  4.681333E-01
  4.671221E-01
  4.682018E-01
  4.675733E-01
  4.688952E-01
  4.682289E-01
  4.691751E-01
  4.678540E-01
  4.680369E-01
  4.660779E-01
  4.659672E-01
  4.641838E-01
  4.647016E-01
  4.665350E-01
  4.674117E-01
  4.669152E-01
  4.679612E-01
  4.675056E-01
  4.684714E-01
  4.678540E-01
  4.686284E-01
  4.678318E-01
  4.684614E-01
  4.675682E-01
  4.681751E-01
  4.673785E-01
  4.682451E-01
  4.678705E-01
  4.692378E-01
  4.692763E-01
  4.707740E-01
  4.705254E-01
  4.713257E-01
  4.701424E-01
  4.700578E-01
  4.683298E-01
  4.682170E-01
  4.669711E-01
  4.676711E-01
  4.672951E-01
  4.686615E-01
  4.685877E-01
  4.698671E-01
  4.694080E-01
  4.701563E-01
  4.691735E-01
  4.695156E-01
  4.682936E-01
  4.685576E-01
  4.673797E-01
  4.677648E-01
  4.667528E-01
  4.673359E-01
  4.665512E-01
  4.673801E-01
  4.668278E-01
  4.678234E-01
  4.673200E-01
  4.682239E-01
  4.675152E-01
  4.681773E-01
  4.672929E-01
  4.679314E-01
  4.672066E-01
  4.681461E-01
  4.677602E-01
  4.689501E-01
  4.686255E-01
  4.696512E-01
  4.689765E-01
  4.695621E-01
  4.684705E-01
  4.687533E-01
  4.675188E-01
  4.678210E-01
  4.667430E-01
  4.673010E-01
  4.645365E-01
  4.656704E-01
  4.657951E-01
  4.673047E-01
  4.675004E-01
  4.687944E-01
  4.685569E-01
  4.692975E-01
  4.684932E-01
  4.687571E-01
  4.676590E-01
  4.678837E-01
  4.670330E-01
  4.677633E-01
  4.675730E-01
  4.689470E-01
  4.691809E-01
  4.705859E-01
  4.703807E-01
  4.709413E-01
  4.696909E-01
  4.692930E-01
  4.674438E-01
  4.669663E-01
  4.655438E-01
  4.658236E-01
  4.652279E-01
  4.661674E-01
  4.659425E-01
  4.669850E-01
  4.667154E-01
  4.676959E-01
  4.674065E-01
  4.683696E-01
  4.679633E-01
  4.686246E-01
  4.677352E-01
  4.678461E-01
  4.665208E-01
  4.664768E-01
  4.653493E-01
  4.657978E-01
  4.652947E-01
  4.663022E-01
  4.661387E-01
  4.672064E-01
  4.668644E-01
  4.676241E-01
  4.669723E-01
  4.675236E-01
  4.668195E-01
  4.674756E-01
  4.669882E-01
  4.678937E-01
  4.675919E-01
  4.685274E-01
  4.680402E-01
  4.685735E-01
  4.675383E-01
  4.675109E-01
  4.660619E-01
  4.659029E-01
  4.646689E-01
  4.650409E-01
  4.676530E-01
  4.681463E-01
  4.677699E-01
  4.681643E-01
  4.676911E-01
  4.679911E-01
  4.674250E-01
  4.676391E-01
  4.670061E-01
  4.671886E-01
  4.665812E-01
  4.668759E-01
  4.664989E-01
  4.671582E-01
  4.672525E-01
  4.683986E-01
  4.688489E-01
  4.700627E-01
  4.701920E-01
  4.707134E-01
  4.699317E-01
  4.695709E-01
  4.681901E-01
  4.676796E-01
  4.666162E-01
  4.667607E-01
  4.664707E-01
  4.672828E-01
  4.673982E-01
  4.682986E-01
  4.682250E-01
  4.687567E-01
  4.682492E-01
  4.683817E-01
  4.675792E-01
  4.675581E-01
  4.667517E-01
  4.668624E-01
  4.662924E-01
  4.666992E-01
  4.664287E-01
  4.670751E-01
  4.669243E-01
  4.675309E-01
  4.671805E-01
  4.674792E-01
  4.668110E-01
  4.669005E-01
  4.662288E-01
  4.665545E-01
  4.663076E-01
  4.671208E-01
  4.672644E-01
  4.682365E-01
  4.682502E-01
  4.688481E-01
  4.683728E-01
  4.685295E-01
  4.677927E-01
  4.679200E-01
  4.673479E-01
  4.677340E-01
  4.674044E-01
  4.679418E-01
  4.660628E-01
  4.666689E-01
  4.669701E-01
  4.675765E-01
  4.677303E-01
  4.680753E-01
  4.678931E-01
  4.678722E-01
  4.673498E-01
  4.670834E-01
  4.664830E-01
  4.663615E-01
  4.661415E-01
  4.665862E-01
  4.670050E-01
  4.680043E-01
  4.687308E-01
  4.696692E-01
  4.699278E-01
  4.700600E-01
  4.693436E-01
  4.685617E-01
  4.672155E-01
  4.662331E-01
  4.651339E-01
  4.647351E-01
  4.643654E-01
  4.646514E-01
  4.648014E-01
  4.654197E-01
  4.657641E-01
  4.664980E-01
  4.668924E-01
  4.675657E-01
  4.677222E-01
  4.679565E-01
  4.675388E-01
  4.672155E-01
  4.664368E-01
  4.660734E-01
  4.655817E-01
  4.657115E-01
  4.657234E-01
  4.661832E-01
  4.662550E-01
  4.665278E-01
  4.662858E-01
  4.662738E-01
  4.659000E-01
  4.659573E-01
  4.658212E-01
  4.661965E-01
  4.663535E-01
  4.669083E-01
  4.670791E-01
  4.674726E-01
  4.673386E-01
  4.673508E-01
  4.668491E-01
  4.666018E-01
  4.660221E-01
  4.659053E-01
  4.656346E-01
  4.659265E-01
  4.694613E-01
  4.691997E-01
  4.691242E-01
  4.683721E-01
  4.679683E-01
  4.670776E-01
  4.667027E-01
  4.659611E-01
  4.658071E-01
  4.653235E-01
  4.654491E-01
  4.652680E-01
  4.657287E-01
  4.659177E-01
  4.667608E-01
  4.672864E-01
  4.683305E-01
  4.688265E-01
  4.695514E-01
  4.694538E-01
  4.694155E-01
  4.685583E-01
  4.679529E-01
  4.668623E-01
  4.664038E-01
  4.657813E-01
  4.659739E-01
  4.660173E-01
  4.667414E-01
  4.670840E-01
  4.678389E-01
  4.679649E-01
  4.683217E-01
  4.679652E-01
  4.678674E-01
  4.671902E-01
  4.669825E-01
  4.664320E-01
  4.665508E-01
  4.664335E-01
  4.669631E-01
  4.671027E-01
  4.676401E-01
  4.675121E-01
  4.675656E-01
  4.668748E-01
  4.664671E-01
  4.655832E-01
  4.653440E-01
  4.649704E-01
  4.654474E-01
  4.657838E-01
  4.667481E-01
  4.672059E-01
  4.679093E-01
  4.678421E-01
  4.679659E-01
  4.674854E-01
  4.675092E-01
  4.672604E-01
  4.677344E-01
  4.679597E-01
  4.687369E-01
  4.689736E-01
  4.679260E-01
  4.675737E-01
  4.682915E-01
  4.676226E-01
  4.680132E-01
  4.670674E-01
  4.672563E-01
  4.661837E-01
  4.663194E-01
  4.652828E-01
  4.655741E-01
  4.648376E-01
  4.655654E-01
  4.653458E-01
  4.665739E-01
  4.667245E-01
  4.680954E-01
  4.681071E-01
  4.690606E-01
  4.684384E-01
  4.686543E-01
  4.673350E-01
  4.670377E-01
  4.654955E-01
  4.653020E-01
  4.641454E-01
  4.645127E-01
  4.639663E-01
  4.648933E-01
  4.648038E-01
  4.660696E-01
  4.661903E-01
  4.675057E-01
  4.674673E-01
  4.683882E-01
  4.677606E-01
  4.680262E-01
  4.668632E-01
  4.668841E-01
  4.658412E-01
  4.662805E-01
  4.657676E-01
  4.666194E-01
  4.662308E-01
  4.668793E-01
  4.660645E-01
  4.662604E-01
  4.651659E-01
  4.653757E-01
  4.645899E-01
  4.652971E-01
  4.650374E-01
  4.661488E-01
  4.660764E-01
  4.671367E-01
  4.668180E-01
  4.675227E-01
  4.668423E-01
  4.672773E-01
  4.664906E-01
  4.670071E-01
  4.664558E-01
  4.672756E-01
  4.669846E-01
  4.711000E-01
  4.698197E-01
  4.701845E-01
  4.682398E-01
  4.681943E-01
  4.661396E-01
  4.662532E-01
  4.645477E-01
  4.651093E-01
  4.638734E-01
  4.648765E-01
  4.640309E-01
  4.653680E-01
  4.648020E-01
  4.663625E-01
  4.659505E-01
  4.675692E-01
  4.670880E-01
  4.684890E-01
  4.676485E-01
  4.685957E-01
  4.672914E-01
  4.678670E-01
  4.663733E-01
  4.669908E-01
  4.657638E-01
  4.668123E-01
  4.660820E-01
  4.675796E-01
  4.671456E-01
  4.687098E-01
  4.680823E-01
  4.692223E-01
  4.680317E-01
  4.686094E-01
  4.670117E-01
  4.674600E-01
  4.660583E-01
  4.669782E-01
  4.661837E-01
  4.676543E-01
  4.671670E-01
  4.685799E-01
  4.676575E-01
  4.683674E-01
  4.666797E-01
  4.668037E-01
  4.649100E-01
  4.652980E-01
  4.640825E-01
  4.653755E-01
  4.650339E-01
  4.669268E-01
  4.667657E-01
  4.684189E-01
  4.677367E-01
  4.688126E-01
  4.677243E-01
  4.687098E-01
  4.678573E-01
  4.692805E-01
  4.688594E-01
  4.704984E-01
  4.699463E-01
  4.690786E-01
  4.678747E-01
  4.689083E-01
  4.673882E-01
  4.681310E-01
  4.664102E-01
  4.670613E-01
  4.653408E-01
  4.660603E-01
  4.644707E-01
  4.653986E-01
  4.641093E-01
  4.654171E-01
  4.645359E-01
  4.662008E-01
  4.655474E-01
  4.672631E-01
  4.664787E-01
  4.679146E-01
  4.667570E-01
  4.677899E-01
  4.662648E-01
  4.670269E-01
  4.653763E-01
  4.661810E-01
  4.647278E-01
  4.658396E-01
  4.647442E-01
  4.662133E-01
  4.654410E-01
  4.671738E-01
  4.665701E-01
  4.683207E-01
  4.675267E-01
  4.688615E-01
  4.674886E-01
  4.682303E-01
  4.664420E-01
  4.671002E-01
  4.655983E-01
  4.668016E-01
  4.658799E-01
  4.674555E-01
  4.665420E-01
  4.677603E-01
  4.662749E-01
  4.669414E-01
  4.651414E-01
  4.658458E-01
  4.644169E-01
  4.656983E-01
  4.648807E-01
  4.666568E-01
  4.661278E-01
  4.679635E-01
  4.672928E-01
  4.688433E-01
  4.678181E-01
  4.690279E-01
  4.677544E-01
  4.688615E-01
  4.676346E-01
  4.688823E-01
  4.677932E-01
  4.715883E-01
  4.698587E-01
  4.702618E-01
  4.680353E-01
  4.681794E-01
  4.659630E-01
  4.663470E-01
  4.645166E-01
  4.653408E-01
  4.639328E-01
  4.651214E-01
  4.640085E-01
  4.654283E-01
  4.644922E-01
  4.660416E-01
  4.651898E-01
  4.667754E-01
  4.659073E-01
  4.674216E-01
  4.664318E-01
  4.677903E-01
  4.666397E-01
  4.678693E-01
  4.666567E-01
  4.679130E-01
  4.668159E-01
  4.682531E-01
  4.673578E-01
  4.689588E-01
  4.681257E-01
  4.696326E-01
  4.685225E-01
  4.695903E-01
  4.679575E-01
  4.685465E-01
  4.666231E-01
  4.672230E-01
  4.656485E-01
  4.668694E-01
  4.660284E-01
  4.678849E-01
  4.673842E-01
  4.691660E-01
  4.681774E-01
  4.691878E-01
  4.673674E-01
  4.677346E-01
  4.656558E-01
  4.662301E-01
  4.647651E-01
  4.661850E-01
  4.655665E-01
  4.676226E-01
  4.673011E-01
  4.692996E-01
  4.686569E-01
  4.702267E-01
  4.692112E-01
  4.705785E-01
  4.695586E-01
  4.710550E-01
  4.701697E-01
  4.716666E-01
  4.705543E-01
  4.688465E-01
  4.677470E-01
  4.684421E-01
  4.673249E-01
  4.679759E-01
  4.668174E-01
  4.674316E-01
  4.662245E-01
  4.667717E-01
  4.655043E-01
  4.660517E-01
  4.648980E-01
  4.656877E-01
  4.648637E-01
  4.659868E-01
  4.654101E-01
  4.666370E-01
  4.660149E-01
  4.670859E-01
  4.662578E-01
  4.671309E-01
  4.661560E-01
  4.669576E-01
  4.659914E-01
  4.668675E-01
  4.660099E-01
  4.669908E-01
  4.662081E-01
  4.672340E-01
  4.664900E-01
  4.675733E-01
  4.669011E-01
  4.680217E-01
  4.672780E-01
  4.681665E-01
  4.670512E-01
  4.675396E-01
  4.661609E-01
  4.666655E-01
  4.656236E-01
  4.666884E-01
  4.662267E-01
  4.676681E-01
  4.672351E-01
  4.683550E-01
  4.673849E-01
  4.679579E-01
  4.666186E-01
  4.671000E-01