# vtk DataFile Version 2.0
title
ASCII
DATASET STRUCTURED_GRID
DIMENSIONS   64   64    1
POINTS   4096  float
  0.000000E+00  0.000000E+00  0.000000E+00
  0.000000E+00  3.906250E-01  0.000000E+00
  0.000000E+00  7.812500E-01  0.000000E+00
  0.000000E+00  1.171875E+00  0.000000E+00
  0.000000E+00  1.562500E+00  0.000000E+00
  0.000000E+00  1.953125E+00  0.000000E+00
  0.000000E+00  2.343750E+00  0.000000E+00
  0.000000E+00  2.734375E+00  0.000000E+00
  0.000000E+00  3.125000E+00  0.000000E+00
  0.000000E+00  3.515625E+00  0.000000E+00
  0.000000E+00  3.906250E+00  0.000000E+00
  0.000000E+00  4.296875E+00  0.000000E+00
  0.000000E+00  4.687500E+00  0.000000E+00
  0.000000E+00  5.078125E+00  0.000000E+00
  0.000000E+00  5.468750E+00  0.000000E+00
  0.000000E+00  5.859375E+00  0.000000E+00
  0.000000E+00  6.250000E+00  0.000000E+00
  0.000000E+00  6.640625E+00  0.000000E+00
  0.000000E+00  7.031250E+00  0.000000E+00
  0.000000E+00  7.421875E+00  0.000000E+00
  0.000000E+00  7.812500E+00  0.000000E+00
  0.000000E+00  8.203125E+00  0.000000E+00
  0.000000E+00  8.593750E+00  0.000000E+00
  0.000000E+00  8.984375E+00  0.000000E+00
  0.000000E+00  9.375000E+00  0.000000E+00
  0.000000E+00  9.765625E+00  0.000000E+00
  0.000000E+00  1.015625E+01  0.000000E+00
  0.000000E+00  1.054688E+01  0.000000E+00
  0.000000E+00  1.093750E+01  0.000000E+00
  0.000000E+00  1.132812E+01  0.000000E+00
  0.000000E+00  1.171875E+01  0.000000E+00
  0.000000E+00  1.210938E+01  0.000000E+00
  0.000000E+00  1.250000E+01  0.000000E+00
  0.000000E+00  1.289062E+01  0.000000E+00
  0.000000E+00  1.328125E+01  0.000000E+00
  0.000000E+00  1.367188E+01  0.000000E+00
  0.000000E+00  1.406250E+01  0.000000E+00
  0.000000E+00  1.445312E+01  0.000000E+00
  0.000000E+00  1.484375E+01  0.000000E+00
  0.000000E+00  1.523438E+01  0.000000E+00
  0.000000E+00  1.562500E+01  0.000000E+00
  0.000000E+00  1.601562E+01  0.000000E+00
  0.000000E+00  1.640625E+01  0.000000E+00
  0.000000E+00  1.679688E+01  0.000000E+00
  0.000000E+00  1.718750E+01  0.000000E+00
  0.000000E+00  1.757812E+01  0.000000E+00
  0.000000E+00  1.796875E+01  0.000000E+00
  0.000000E+00  1.835938E+01  0.000000E+00
  0.000000E+00  1.875000E+01  0.000000E+00
  0.000000E+00  1.914062E+01  0.000000E+00
  0.000000E+00  1.953125E+01  0.000000E+00
  0.000000E+00  1.992188E+01  0.000000E+00
  0.000000E+00  2.031250E+01  0.000000E+00
  0.000000E+00  2.070312E+01  0.000000E+00
  0.000000E+00  2.109375E+01  0.000000E+00
  0.000000E+00  2.148438E+01  0.000000E+00
  0.000000E+00  2.187500E+01  0.000000E+00
  0.000000E+00  2.226562E+01  0.000000E+00
  0.000000E+00  2.265625E+01  0.000000E+00
  0.000000E+00  2.304688E+01  0.000000E+00
  0.000000E+00  2.343750E+01  0.000000E+00
  0.000000E+00  2.382812E+01  0.000000E+00
  0.000000E+00  2.421875E+01  0.000000E+00
  0.000000E+00  2.460938E+01  0.000000E+00
  3.906250E-01  0.000000E+00  0.000000E+00
  3.906250E-01  3.906250E-01  0.000000E+00
  3.906250E-01  7.812500E-01  0.000000E+00
  3.906250E-01  1.171875E+00  0.000000E+00
  3.906250E-01  1.562500E+00  0.000000E+00
  3.906250E-01  1.953125E+00  0.000000E+00
  3.906250E-01  2.343750E+00  0.000000E+00
  3.906250E-01  2.734375E+00  0.000000E+00
  3.906250E-01  3.125000E+00  0.000000E+00
  3.906250E-01  3.515625E+00  0.000000E+00
  3.906250E-01  3.906250E+00  0.000000E+00
  3.906250E-01  4.296875E+00  0.000000E+00
  3.906250E-01  4.687500E+00  0.000000E+00
  3.906250E-01  5.078125E+00  0.000000E+00
  3.906250E-01  5.468750E+00  0.000000E+00
  3.906250E-01  5.859375E+00  0.000000E+00
  3.906250E-01  6.250000E+00  0.000000E+00
  3.906250E-01  6.640625E+00  0.000000E+00
  3.906250E-01  7.031250E+00  0.000000E+00
  3.906250E-01  7.421875E+00  0.000000E+00
  3.906250E-01  7.812500E+00  0.000000E+00
  3.906250E-01  8.203125E+00  0.000000E+00
  3.906250E-01  8.593750E+00  0.000000E+00
  3.906250E-01  8.984375E+00  0.000000E+00
  3.906250E-01  9.375000E+00  0.000000E+00
  3.906250E-01  9.765625E+00  0.000000E+00
  3.906250E-01  1.015625E+01  0.000000E+00
  3.906250E-01  1.054688E+01  0.000000E+00
  3.906250E-01  1.093750E+01  0.000000E+00
  3.906250E-01  1.132812E+01  0.000000E+00
  3.906250E-01  1.171875E+01  0.000000E+00
  3.906250E-01  1.210938E+01  0.000000E+00
  3.906250E-01  1.250000E+01  0.000000E+00
  3.906250E-01  1.289062E+01  0.000000E+00
  3.906250E-01  1.328125E+01  0.000000E+00
  3.906250E-01  1.367188E+01  0.000000E+00
  3.906250E-01  1.406250E+01  0.000000E+00
  3.906250E-01  1.445312E+01  0.000000E+00
  3.906250E-01  1.484375E+01  0.000000E+00
  3.906250E-01  1.523438E+01  0.000000E+00
  3.906250E-01  1.562500E+01  0.000000E+00
  3.906250E-01  1.601562E+01  0.000000E+00
  3.906250E-01  1.640625E+01  0.000000E+00
  3.906250E-01  1.679688E+01  0.000000E+00
  3.906250E-01  1.718750E+01  0.000000E+00
  3.906250E-01  1.757812E+01  0.000000E+00
  3.906250E-01  1.796875E+01  0.000000E+00
  3.906250E-01  1.835938E+01  0.000000E+00
  3.906250E-01  1.875000E+01  0.000000E+00
  3.906250E-01  1.914062E+01  0.000000E+00
  3.906250E-01  1.953125E+01  0.000000E+00
  3.906250E-01  1.992188E+01  0.000000E+00
  3.906250E-01  2.031250E+01  0.000000E+00
  3.906250E-01  2.070312E+01  0.000000E+00
  3.906250E-01  2.109375E+01  0.000000E+00
  3.906250E-01  2.148438E+01  0.000000E+00
  3.906250E-01  2.187500E+01  0.000000E+00
  3.906250E-01  2.226562E+01  0.000000E+00
  3.906250E-01  2.265625E+01  0.000000E+00
  3.906250E-01  2.304688E+01  0.000000E+00
  3.906250E-01  2.343750E+01  0.000000E+00
  3.906250E-01  2.382812E+01  0.000000E+00
  3.906250E-01  2.421875E+01  0.000000E+00
  3.906250E-01  2.460938E+01  0.000000E+00
  7.812500E-01  0.000000E+00  0.000000E+00
  7.812500E-01  3.906250E-01  0.000000E+00
  7.812500E-01  7.812500E-01  0.000000E+00
  7.812500E-01  1.171875E+00  0.000000E+00
  7.812500E-01  1.562500E+00  0.000000E+00
  7.812500E-01  1.953125E+00  0.000000E+00
  7.812500E-01  2.343750E+00  0.000000E+00
  7.812500E-01  2.734375E+00  0.000000E+00
  7.812500E-01  3.125000E+00  0.000000E+00
  7.812500E-01  3.515625E+00  0.000000E+00
  7.812500E-01  3.906250E+00  0.000000E+00
  7.812500E-01  4.296875E+00  0.000000E+00
  7.812500E-01  4.687500E+00  0.000000E+00
  7.812500E-01  5.078125E+00  0.000000E+00
  7.812500E-01  5.468750E+00  0.000000E+00
  7.812500E-01  5.859375E+00  0.000000E+00
  7.812500E-01  6.250000E+00  0.000000E+00
  7.812500E-01  6.640625E+00  0.000000E+00
  7.812500E-01  7.031250E+00  0.000000E+00
  7.812500E-01  7.421875E+00  0.000000E+00
  7.812500E-01  7.812500E+00  0.000000E+00
  7.812500E-01  8.203125E+00  0.000000E+00
  7.812500E-01  8.593750E+00  0.000000E+00
  7.812500E-01  8.984375E+00  0.000000E+00
  7.812500E-01  9.375000E+00  0.000000E+00
  7.812500E-01  9.765625E+00  0.000000E+00
  7.812500E-01  1.015625E+01  0.000000E+00
  7.812500E-01  1.054688E+01  0.000000E+00
  7.812500E-01  1.093750E+01  0.000000E+00
  7.812500E-01  1.132812E+01  0.000000E+00
  7.812500E-01  1.171875E+01  0.000000E+00
  7.812500E-01  1.210938E+01  0.000000E+00
  7.812500E-01  1.250000E+01  0.000000E+00
  7.812500E-01  1.289062E+01  0.000000E+00
  7.812500E-01  1.328125E+01  0.000000E+00
  7.812500E-01  1.367188E+01  0.000000E+00
  7.812500E-01  1.406250E+01  0.000000E+00
  7.812500E-01  1.445312E+01  0.000000E+00
  7.812500E-01  1.484375E+01  0.000000E+00
  7.812500E-01  1.523438E+01  0.000000E+00
  7.812500E-01  1.562500E+01  0.000000E+00
  7.812500E-01  1.601562E+01  0.000000E+00
  7.812500E-01  1.640625E+01  0.000000E+00
  7.812500E-01  1.679688E+01  0.000000E+00
  7.812500E-01  1.718750E+01  0.000000E+00
  7.812500E-01  1.757812E+01  0.000000E+00
  7.812500E-01  1.796875E+01  0.000000E+00
  7.812500E-01  1.835938E+01  0.000000E+00
  7.812500E-01  1.875000E+01  0.000000E+00
  7.812500E-01  1.914062E+01  0.000000E+00
  7.812500E-01  1.953125E+01  0.000000E+00
  7.812500E-01  1.992188E+01  0.000000E+00
  7.812500E-01  2.031250E+01  0.000000E+00
  7.812500E-01  2.070312E+01  0.000000E+00
  7.812500E-01  2.109375E+01  0.000000E+00
  7.812500E-01  2.148438E+01  0.000000E+00
  7.812500E-01  2.187500E+01  0.000000E+00
  7.812500E-01  2.226562E+01  0.000000E+00
  7.812500E-01  2.265625E+01  0.000000E+00
  7.812500E-01  2.304688E+01  0.000000E+00
  7.812500E-01  2.343750E+01  0.000000E+00
  7.812500E-01  2.382812E+01  0.000000E+00
  7.812500E-01  2.421875E+01  0.000000E+00
  7.812500E-01  2.460938E+01  0.000000E+00
  1.171875E+00  0.000000E+00  0.000000E+00
  1.171875E+00  3.906250E-01  0.000000E+00
  1.171875E+00  7.812500E-01  0.000000E+00
  1.171875E+00  1.171875E+00  0.000000E+00
  1.171875E+00  1.562500E+00  0.000000E+00
  1.171875E+00  1.953125E+00  0.000000E+00
  1.171875E+00  2.343750E+00  0.000000E+00
  1.171875E+00  2.734375E+00  0.000000E+00
  1.171875E+00  3.125000E+00  0.000000E+00
  1.171875E+00  3.515625E+00  0.000000E+00
  1.171875E+00  3.906250E+00  0.000000E+00
  1.171875E+00  4.296875E+00  0.000000E+00
  1.171875E+00  4.687500E+00  0.000000E+00
  1.171875E+00  5.078125E+00  0.000000E+00
  1.171875E+00  5.468750E+00  0.000000E+00
  1.171875E+00  5.859375E+00  0.000000E+00
  1.171875E+00  6.250000E+00  0.000000E+00
  1.171875E+00  6.640625E+00  0.000000E+00
  1.171875E+00  7.031250E+00  0.000000E+00
  1.171875E+00  7.421875E+00  0.000000E+00
  1.171875E+00  7.812500E+00  0.000000E+00
  1.171875E+00  8.203125E+00  0.000000E+00
  1.171875E+00  8.593750E+00  0.000000E+00
  1.171875E+00  8.984375E+00  0.000000E+00
  1.171875E+00  9.375000E+00  0.000000E+00
  1.171875E+00  9.765625E+00  0.000000E+00
  1.171875E+00  1.015625E+01  0.000000E+00
  1.171875E+00  1.054688E+01  0.000000E+00
  1.171875E+00  1.093750E+01  0.000000E+00
  1.171875E+00  1.132812E+01  0.000000E+00
  1.171875E+00  1.171875E+01  0.000000E+00
  1.171875E+00  1.210938E+01  0.000000E+00
  1.171875E+00  1.250000E+01  0.000000E+00
  1.171875E+00  1.289062E+01  0.000000E+00
  1.171875E+00  1.328125E+01  0.000000E+00
  1.171875E+00  1.367188E+01  0.000000E+00
  1.171875E+00  1.406250E+01  0.000000E+00
  1.171875E+00  1.445312E+01  0.000000E+00
[...]
POINT_DATA   4096
SCALARS CON  float  1
LOOKUP_TABLE default
  4.695150E-01
  4.684743E-01
  4.709036E-01
  4.694597E-01
  4.712118E-01
  4.691022E-01
  4.704241E-01
  4.681999E-01
  4.696598E-01
  4.676906E-01
  4.694040E-01
  4.676430E-01
  4.695484E-01
  4.680146E-01
  4.701933E-01
  4.689177E-01
  4.712230E-01
  4.698260E-01
  4.717086E-01
  4.696360E-01
  4.707350E-01
  4.679662E-01
  4.686371E-01
  4.658121E-01
  4.667930E-01
  4.645349E-01
  4.661687E-01
  4.644815E-01
  4.664990E-01
  4.649958E-01
  4.670657E-01
  4.655831E-01
  4.677119E-01
  4.663251E-01
  4.685145E-01
  4.670522E-01
  4.689612E-01
  4.670245E-01
  4.683657E-01
  4.659280E-01
  4.669993E-01
  4.646351E-01
  4.661459E-01
  4.645087E-01
  4.668692E-01
  4.659906E-01
  4.688109E-01
  4.679563E-01
  4.703549E-01
  4.687731E-01
  4.703972E-01
  4.682808E-01
  4.698088E-01
  4.680494E-01
  4.701968E-01
  4.689965E-01
  4.713321E-01
  4.698001E-01
  4.713759E-01
  4.689580E-01
  4.699001E-01
  4.673816E-01
  4.688108E-01
  4.671708E-01
  4.713311E-01
  4.706829E-01
  4.719323E-01
  4.705550E-01
  4.709665E-01
  4.689550E-01
  4.691551E-01
  4.673975E-01
  4.681820E-01
  4.671053E-01
  4.684490E-01
  4.676993E-01
  4.691609E-01
  4.684305E-01
  4.699243E-01
  4.692758E-01
  4.708401E-01
  4.701305E-01
  4.713993E-01
  4.701434E-01
  4.707118E-01
  4.687820E-01
  4.688996E-01
  4.668805E-01
  4.673004E-01
  4.658895E-01
  4.670524E-01
  4.663187E-01
  4.679244E-01
  4.673094E-01
  4.687207E-01
  4.677009E-01
  4.686513E-01
  4.672640E-01
  4.680321E-01
  4.666521E-01
  4.675421E-01
  4.662877E-01
  4.672186E-01
  4.659017E-01
  4.667301E-01
  4.653863E-01
  4.663716E-01
  4.654073E-01
  4.669315E-01
  4.665136E-01
  4.684088E-01
  4.680540E-01
  4.696891E-01
  4.688711E-01
  4.700512E-01
  4.689959E-01
  4.702636E-01
  4.695662E-01
  4.712624E-01
  4.708091E-01
  4.723783E-01
  4.714059E-01
  4.722299E-01
  4.705718E-01
  4.710473E-01
  4.695200E-01
  4.705433E-01
  4.697368E-01
  4.680609E-01
  4.686996E-01
  4.697626E-01
  4.699586E-01
  4.702030E-01
  4.695589E-01
  4.692452E-01
  4.684619E-01
  4.683750E-01
  4.680090E-01
  4.683420E-01
  4.682888E-01
  4.688235E-01
  4.689229E-01
  4.696163E-01
  4.698709E-01
  4.706309E-01
  4.707458E-01
  4.710787E-01
  4.704922E-01
  4.699740E-01
  4.685894E-01
  4.675378E-01
  4.660300E-01
  4.652940E-01
  4.644445E-01
  4.645272E-01
  4.644561E-01
  4.651261E-01
  4.653925E-01
  4.661819E-01
  4.664313E-01
  4.671433E-01
  4.672812E-01
  4.678177E-01
  4.676608E-01
  4.677526E-01
  4.670366E-01
  4.665653E-01
  4.654395E-01
  4.648620E-01
  4.640206E-01
  4.641049E-01
  4.641819E-01
  4.652373E-01
  4.661015E-01
  4.675573E-01
  4.683320E-01
  4.692511E-01
  4.692338E-01
  4.693930E-01
  4.689306E-01
  4.691204E-01
  4.691224E-01
  4.699659E-01
  4.704560E-01
  4.713112E-01
  4.712192E-01
  4.710463E-01
  4.698466E-01
  4.689205E-01
  4.676355E-01
  4.673437E-01
  4.671761E-01
  4.694786E-01
  4.705179E-01
  4.703095E-01
  4.705935E-01
  4.694608E-01
  4.690037E-01
  4.675834E-01
  4.673756E-01
  4.666170E-01
  4.672229E-01
  4.671604E-01
  4.681818E-01
  4.682487E-01
  4.692309E-01
  4.692360E-01
  4.702123E-01
  4.702326E-01
  4.711237E-01
  4.708319E-01
  4.711386E-01
  4.700711E-01
  4.695995E-01
  4.679764E-01
  4.673462E-01
  4.660198E-01
  4.660656E-01
  4.656134E-01
  4.665051E-01
  4.666677E-01
  4.678192E-01
  4.678696E-01
  4.686232E-01
  4.681429E-01
  4.683974E-01
  4.675693E-01
  4.676659E-01
  4.668278E-01
  4.669763E-01
  4.661761E-01
  4.663284E-01
  4.655454E-01
  4.658142E-01
  4.653167E-01
  4.660402E-01
  4.660763E-01
  4.672577E-01
  4.675195E-01
  4.686110E-01
  4.685062E-01
  4.691119E-01
  4.686193E-01
  4.691163E-01
  4.688513E-01
  4.698074E-01
  4.700016E-01
  4.711585E-01
  4.711291E-01
  4.716498E-01
  4.707703E-01
  4.705368E-01
  4.692905E-01
  4.692241E-01
  4.686124E-01
  4.693888E-01
  4.660652E-01
  4.681485E-01
  4.678898E-01
  4.695615E-01
  4.684911E-01
  4.693052E-01
  4.676515E-01
  4.683174E-01
  4.669141E-01
  4.680509E-01
  4.671305E-01
  4.686250E-01
  4.679148E-01
  4.695346E-01
  4.689375E-01
  4.706701E-01
  4.701121E-01
  4.716865E-01
  4.706729E-01
  4.714897E-01
  4.695368E-01
  4.694504E-01
  4.668712E-01
  4.666105E-01
  4.643551E-01
  4.648203E-01
  4.634953E-01
  4.648708E-01
  4.642614E-01
  4.660793E-01
  4.656563E-01
  4.674775E-01
  4.669479E-01
  4.685841E-01
  4.677750E-01
  4.690035E-01
  4.676528E-01
  4.682639E-01
  4.663444E-01
  4.665924E-01
  4.646490E-01
  4.652677E-01
  4.640369E-01
  4.655551E-01
  4.651919E-01
  4.673231E-01
  4.671582E-01
  4.690279E-01
  4.682353E-01
  4.693256E-01
  4.678744E-01
  4.686639E-01
  4.673760E-01
  4.687122E-01
  4.681016E-01
  4.699124E-01
  4.692983E-01
  4.705376E-01
  4.689377E-01
  4.691277E-01
  4.668254E-01
  4.669574E-01
  4.652941E-01
  4.665417E-01
  4.676152E-01
  4.696494E-01
  4.684598E-01
  4.698643E-01
  4.678753E-01
  4.686191E-01
  4.663593E-01
  4.673144E-01
  4.656504E-01
  4.673548E-01
  4.663420E-01
  4.684403E-01
  4.675538E-01
  4.696217E-01
  4.686900E-01
  4.707724E-01
  4.698719E-01
  4.718681E-01
  4.706243E-01
  4.719700E-01
  4.698599E-01
  4.703364E-01
  4.676083E-01
  4.679135E-01
  4.655230E-01
  4.665847E-01
  4.651644E-01
  4.671603E-01
  4.664219E-01
  4.687203E-01
  4.678908E-01
  4.697939E-01
  4.684177E-01
  4.697854E-01
  4.680057E-01
  4.691481E-01
  4.672950E-01
  4.684487E-01
  4.666302E-01
  4.678234E-01
  4.660808E-01
  4.674406E-01
  4.659868E-01
  4.677284E-01
  4.666539E-01
  4.686427E-01
  4.675784E-01
  4.693165E-01
  4.678222E-01
  4.691171E-01
  4.673527E-01
  4.686766E-01
  4.672453E-01
  4.690768E-01
  4.681092E-01
  4.701431E-01
  4.689936E-01
  4.704920E-01
  4.686341E-01
  4.695134E-01
  4.673659E-01
  4.684042E-01
  4.668100E-01
  4.685835E-01
  4.645442E-01
  4.670733E-01
  4.662917E-01
  4.686446E-01
  4.672950E-01
  4.689592E-01
  4.670699E-01
  4.685018E-01
  4.666914E-01
  4.683973E-01
  4.669049E-01
  4.688714E-01
  4.675684E-01
  4.697022E-01
  4.685910E-01
  4.709233E-01
  4.699168E-01
  4.721168E-01
  4.706338E-01
  4.720167E-01
  4.695198E-01
  4.699405E-01
  4.668002E-01
  4.670820E-01
  4.643423E-01
  4.654402E-01
  4.637027E-01
  4.657434E-01
  4.647120E-01
  4.671577E-01
  4.662687E-01
  4.686838E-01
  4.676682E-01
  4.698848E-01
  4.685721E-01
  4.703540E-01
  4.684690E-01
  4.696132E-01
  4.671642E-01
  4.679790E-01
  4.655550E-01
  4.667756E-01
  4.650510E-01
  4.670850E-01
  4.660699E-01
  4.685181E-01
  4.675142E-01
  4.695796E-01
  4.679246E-01
  4.692801E-01
  4.670879E-01
  4.682585E-01
  4.662946E-01
  4.680152E-01
  4.666999E-01
  4.688875E-01
  4.676280E-01
  4.693813E-01
  4.673159E-01
  4.681756E-01
  4.654732E-01
  4.662194E-01
  4.640042E-01
  4.656887E-01
  4.665329E-01
  4.684997E-01
  4.672410E-01
  4.689067E-01
  4.671836E-01
  4.684192E-01
  4.664790E-01
  4.677932E-01
  4.661822E-01
  4.679335E-01
  4.667058E-01
  4.686893E-01
  4.675514E-01
  4.695734E-01
  4.685205E-01
  4.706978E-01
  4.697859E-01
  4.719324E-01
  4.706768E-01
  4.721350E-01
  4.699693E-01
  4.705410E-01
  4.677870E-01
  4.682631E-01
  4.659448E-01
  4.672606E-01
  4.659458E-01
  4.681634E-01
  4.674411E-01
  4.698445E-01
  4.689243E-01
  4.708622E-01
  4.693688E-01
  4.707763E-01
  4.688953E-01
  4.700881E-01
  4.681358E-01
  4.693432E-01
  4.674436E-01
  4.687294E-01
  4.669550E-01
  4.684417E-01
  4.669458E-01
  4.687409E-01
  4.674931E-01
  4.693790E-01
  4.680084E-01
  4.695787E-01
  4.678012E-01
  4.690230E-01
  4.670953E-01
  4.684358E-01
  4.668634E-01
  4.686667E-01
  4.674863E-01
  4.694522E-01
  4.681281E-01
  4.696811E-01
  4.678132E-01
  4.688806E-01
  4.667563E-01
  4.678874E-01
  4.661246E-01
  4.677863E-01
  4.638917E-01
  4.659897E-01
  4.654756E-01
  4.677703E-01
  4.670629E-01
  4.689229E-01
  4.677260E-01
  4.691872E-01
  4.677442E-01
  4.690996E-01
  4.676487E-01
  4.690690E-01
  4.677670E-01
  4.694446E-01
  4.684990E-01
  4.705511E-01
  4.698486E-01
  4.718463E-01
  4.706886E-01
  4.718583E-01
  4.696767E-01
  4.699037E-01
  4.671399E-01
  4.673202E-01
  4.650497E-01
  4.661002E-01
  4.648165E-01
  4.667163E-01
  4.659864E-01
  4.681203E-01
  4.673882E-01
  4.694045E-01
  4.685230E-01
  4.703662E-01
  4.692341E-01
  4.706867E-01
  4.690150E-01
  4.698578E-01
  4.676573E-01
  4.682191E-01
  4.660972E-01
  4.671020E-01
  4.656760E-01
  4.674380E-01
  4.666225E-01
  4.686895E-01
  4.678090E-01
  4.694848E-01
  4.680211E-01
  4.691060E-01
  4.672262E-01
  4.681965E-01
  4.665334E-01
  4.679681E-01
  4.668379E-01
  4.686540E-01
  4.675709E-01
  4.690280E-01
  4.672589E-01
  4.679179E-01
  4.655176E-01
  4.659530E-01
  4.638459E-01
  4.650244E-01
  4.662485E-01
  4.676216E-01
  4.667890E-01
  4.682073E-01
  4.672603E-01
  4.684847E-01
  4.673605E-01
  4.684919E-01
  4.673694E-01
  4.685578E-01
  4.674962E-01
  4.687306E-01
  4.677334E-01
  4.691133E-01
  4.683799E-01
  4.701002E-01
  4.696518E-01
  4.714256E-01
  4.706670E-01
  4.717615E-01
  4.701064E-01
  4.703525E-01
  4.681746E-01
  4.684020E-01
  4.667181E-01
  4.677932E-01
  4.670498E-01
  4.688937E-01
  4.685656E-01
  4.704155E-01
  4.697496E-01
  4.710610E-01
  4.698184E-01
  4.706466E-01
  4.690852E-01
  4.697652E-01
  4.681876E-01
  4.689307E-01
  4.674577E-01
  4.683382E-01
  4.670473E-01
  4.681638E-01
  4.671453E-01
  4.685175E-01
  4.676635E-01
  4.690460E-01
  4.680321E-01
  4.691326E-01
  4.678160E-01
  4.687116E-01
  4.673753E-01
  4.684551E-01
  4.674461E-01
  4.688766E-01
  4.681074E-01
  4.695685E-01
  4.685932E-01
  4.696625E-01
  4.682189E-01
  4.688733E-01
  4.671792E-01
  4.678092E-01
  4.663161E-01
  4.673123E-01
  4.639239E-01
  4.654409E-01
  4.653445E-01
  4.673036E-01
  4.672771E-01
  4.689857E-01
  4.685007E-01
  4.696693E-01
  4.686686E-01
  4.694207E-01
  4.681563E-01
  4.688404E-01
  4.677333E-01
  4.687943E-01
  4.682162E-01
  4.698187E-01
  4.696068E-01
  4.712244E-01
  4.705872E-01
  4.713913E-01
  4.697501E-01
  4.696455E-01
  4.674641E-01
  4.673459E-01
  4.656609E-01
  4.663690E-01
  4.655745E-01
  4.669942E-01
  4.666005E-01
  4.681192E-01
  4.676350E-01
  4.690082E-01
  4.684021E-01
  4.696653E-01
  4.688827E-01
  4.698241E-01
  4.685624E-01
  4.689526E-01
  4.672260E-01
  4.674030E-01
  4.658123E-01
  4.664574E-01
  4.655391E-01
  4.668699E-01
  4.664655E-01
  4.680194E-01
  4.675241E-01
  4.687414E-01
  4.677928E-01
  4.685878E-01
  4.673739E-01
  4.681324E-01
  4.671100E-01
  4.682108E-01
  4.675449E-01
  4.688584E-01
  4.681337E-01
  4.690704E-01
  4.677149E-01
  4.679331E-01
  4.659916E-01
  4.659575E-01
  4.642077E-01
  4.647869E-01
  4.665942E-01
  4.674874E-01
  4.669669E-01
  4.679940E-01
  4.674929E-01
  4.684380E-01
  4.677893E-01
  4.685636E-01
  4.677546E-01
  4.683995E-01
  4.675100E-01
  4.681525E-01
  4.673802E-01
  4.682928E-01
  4.679311E-01
  4.693081E-01
  4.693098E-01
  4.707760E-01
  4.704791E-01
  4.712737E-01
  4.700937E-01
  4.700544E-01
  4.683538E-01
  4.682713E-01
  4.670060E-01
  4.676809E-01
  4.672478E-01
  4.685845E-01
  4.684818E-01
  4.697783E-01
  4.693361E-01
  4.701311E-01
  4.691724E-01
  4.695486E-01
  4.683265E-01
  4.685996E-01
  4.674046E-01
  4.677944E-01
  4.667729E-01
  4.673742E-01
  4.665906E-01
  4.674378E-01
  4.668738E-01
  4.678672E-01
  4.673331E-01
  4.682257E-01
  4.674913E-01
  4.681584E-01
  4.672679E-01
  4.679251E-01
  4.671956E-01
  4.681423E-01
  4.677326E-01
  4.689118E-01
  4.685545E-01
  4.695731E-01
  4.688797E-01
  4.694766E-01
  4.683830E-01
  4.686901E-01
  4.674652E-01
  4.678041E-01
  4.667474E-01
  4.673474E-01
  4.646218E-01
  4.657416E-01
  4.658478E-01
  4.673206E-01
  4.674884E-01
  4.687488E-01
  4.684966E-01
  4.692238E-01
  4.684288E-01
  4.687044E-01
  4.676390E-01
  4.678923E-01
  4.670793E-01
  4.678267E-01
  4.676455E-01
  4.689967E-01
  4.692000E-01
  4.705576E-01
  4.703238E-01
  4.708677E-01
  4.696378E-01
  4.692707E-01
  4.674666E-01
  4.670091E-01
  4.655891E-01
  4.658342E-01
  4.652014E-01
  4.661023E-01
  4.658752E-01
  4.669358E-01
  4.667140E-01
  4.677316E-01
  4.674702E-01
  4.684245E-01
  4.679996E-01
  4.686290E-01
  4.677313E-01
  4.678451E-01
  4.665499E-01
  4.665301E-01
  4.654267E-01
  4.658705E-01
  4.653550E-01
  4.663297E-01
  4.661437E-01
  4.671862E-01
  4.668395E-01
  4.675930E-01
  4.669507E-01
  4.675037E-01
  4.668117E-01
  4.674678E-01
  4.669859E-01
  4.678795E-01
  4.675673E-01
  4.684756E-01
  4.679708E-01
  4.684841E-01
  4.674541E-01
  4.674400E-01
  4.660301E-01
  4.659079E-01
  4.647180E-01
  4.651119E-01
  4.676820E-01
  4.681616E-01
  4.678027E-01
  4.681709E-01
  4.677015E-01
  4.679681E-01
  4.674085E-01
  4.675993E-01
  4.669856E-01
  4.671574E-01
  4.665812E-01
  4.668766E-01
  4.665392E-01
  4.671984E-01
  4.673163E-01
  4.684309E-01
  4.688667E-01
  4.700198E-01
  4.701301E-01
  4.706172E-01
  4.698653E-01
  4.695215E-01
  4.682024E-01
  4.677090E-01
  4.666785E-01
  4.667981E-01
  4.665059E-01
  4.672786E-01
  4.673999E-01
  4.682837E-01
  4.682402E-01
  4.687708E-01
  4.682964E-01
  4.684203E-01
  4.676385E-01
  4.675966E-01
  4.668028E-01
  4.668902E-01
  4.663346E-01
  4.667208E-01
  4.664646E-01
  4.670856E-01
  4.669409E-01
  4.675148E-01
  4.671697E-01
  4.674448E-01
  4.667994E-01
  4.668847E-01
  4.662483E-01
  4.665686E-01
  4.663412E-01
  4.671241E-01
  4.672636E-01
  4.681942E-01
  4.682113E-01
  4.687919E-01
  4.683508E-01
  4.685140E-01
  4.678183E-01
  4.679408E-01
  4.673879E-01
  4.677496E-01
  4.674313E-01
  4.679491E-01
  4.660817E-01
  4.666512E-01
  4.669693E-01
  4.675497E-01
  4.677260E-01
  4.680446E-01
  4.678826E-01
  4.678369E-01
  4.673433E-01
  4.670662E-01
  4.665087E-01
  4.663838E-01
  4.662018E-01
  4.666253E-01
  4.670553E-01
  4.680040E-01
  4.687179E-01
  4.695954E-01
  4.698499E-01
  4.699496E-01
  4.692716E-01
  4.685019E-01
  4.672261E-01
  4.662628E-01
  4.652130E-01
  4.647948E-01
  4.644370E-01
  4.646842E-01
  4.648516E-01
  4.654531E-01
  4.658351E-01
  4.665539E-01
  4.669652E-01
  4.675911E-01
  4.677402E-01
  4.679269E-01
  4.675276E-01
  4.671955E-01
  4.664664E-01
  4.661014E-01
  4.656391E-01
  4.657311E-01
  4.657396E-01
  4.661480E-01
  4.662272E-01
  4.664771E-01
  4.662742E-01
  4.662600E-01
  4.659283E-01
  4.659712E-01
  4.658581E-01
  4.662023E-01
  4.663736E-01
  4.668977E-01
  4.670899E-01
  4.674632E-01
  4.673619E-01
  4.673636E-01
  4.669005E-01
  4.666422E-01
  4.660922E-01
  4.659484E-01
  4.656890E-01
  4.659394E-01
  4.694036E-01
  4.691238E-01
  4.690859E-01
  4.683374E-01
  4.679738E-01
  4.670765E-01
  4.667274E-01
  4.659674E-01
  4.658324E-01
  4.653280E-01
  4.654733E-01
  4.652739E-01
  4.657564E-01
  4.659258E-01
  4.667832E-01
  4.672744E-01
  4.683143E-01
  4.687617E-01
  4.694817E-01
  4.693536E-01
  4.693447E-01
  4.684974E-01
  4.679544E-01
  4.668885E-01
  4.664859E-01
  4.658653E-01
  4.660842E-01
  4.661019E-01
  4.668315E-01
  4.671349E-01
  4.678881E-01
  4.679735E-01
  4.683334E-01
  4.679476E-01
  4.678687E-01
  4.671783E-01
  4.670008E-01
  4.664397E-01
  4.665820E-01
  4.664401E-01
  4.669758E-01
  4.670761E-01
  4.676133E-01
  4.674523E-01
  4.675260E-01
  4.668322E-01
  4.664746E-01
  4.656059E-01
  4.654144E-01
  4.650312E-01
  4.655161E-01
  4.658032E-01
  4.667523E-01
  4.671656E-01
  4.678873E-01
  4.678265E-01
  4.680169E-01
  4.675676E-01
  4.676468E-01
  4.673839E-01
  4.678505E-01
  4.680054E-01
  4.687457E-01
  4.689179E-01
  4.678626E-01
  4.674906E-01
  4.682261E-01
  4.675750E-01
  4.680016E-01
  4.670704E-01
  4.672783E-01
  4.662018E-01
  4.663457E-01
  4.653038E-01
  4.656064E-01
  4.648645E-01
  4.655963E-01
  4.653586E-01
  4.665775E-01
  4.667016E-01
  4.680620E-01
  4.680515E-01
  4.690026E-01
  4.683710E-01
  4.686031E-01
  4.672975E-01
  4.670395E-01
  4.655256E-01
  4.653705E-01
  4.642256E-01
  4.646062E-01
  4.640483E-01
  4.649743E-01
  4.648669E-01
  4.661259E-01
  4.662167E-01
  4.675080E-01
  4.674267E-01
  4.683274E-01
  4.676842E-01
  4.679735E-01
  4.668376E-01
  4.669031E-01
  4.658756E-01
  4.663204E-01
  4.657754E-01
  4.666004E-01
  4.661786E-01
  4.668310E-01
  4.660303E-01
  4.662716E-01
  4.652084E-01
  4.654503E-01
  4.646596E-01
  4.653570E-01
  4.650625E-01
  4.661565E-01
  4.660641E-01
  4.671360E-01
  4.668293E-01
  4.675701E-01
  4.669124E-01
  4.673775E-01
  4.665908E-01
  4.671019E-01
  4.665105E-01
  4.672922E-01
  4.669475E-01
  4.709879E-01
  4.697232E-01
  4.701085E-01
  4.682148E-01
  4.681999E-01
  4.661845E-01
  4.663047E-01
  4.646125E-01
  4.651587E-01
  4.639208E-01
  4.648997E-01
  4.640489E-01
  4.653640E-01
  4.647996E-01
  4.663471E-01
  4.659444E-01
  4.675538E-01
  4.670805E-01
  4.684679E-01
  4.676328E-01
  4.685695E-01
  4.672807E-01
  4.678606E-01
  4.663966E-01
  4.670273E-01
  4.658302E-01
  4.668818E-01
  4.661618E-01
  4.676363E-01
  4.671845E-01
  4.687026E-01
  4.680474E-01
  4.691497E-01
  4.679581E-01
  4.685361E-01
  4.669743E-01
  4.674463E-01
  4.660827E-01
  4.670070E-01
  4.662171E-01
  4.676564E-01
  4.671483E-01
  4.685243E-01
  4.675993E-01
  4.683103E-01
  4.666660E-01
  4.668287E-01
  4.649925E-01
  4.654021E-01
  4.641994E-01
  4.654564E-01
  4.650776E-01
  4.669109E-01
  4.667246E-01
  4.683621E-01
  4.677150E-01
  4.688295E-01
  4.678033E-01
  4.688158E-01
  4.679783E-01
  4.693624E-01
  4.688954E-01
  4.704616E-01
  4.698682E-01
  4.690024E-01
  4.678174E-01
  4.688402E-01
  4.673761E-01
  4.681287E-01
  4.664619E-01
  4.671034E-01
  4.654122E-01
  4.661034E-01
  4.645338E-01
  4.654296E-01
  4.641565E-01
  4.654260E-01
  4.645557E-01
  4.661838E-01
  4.655525E-01
  4.672483E-01
  4.664999E-01
  4.679193E-01
  4.667898E-01
  4.677934E-01
  4.662873E-01
  4.670200E-01
  4.653958E-01
  4.661794E-01
  4.647564E-01
  4.658450E-01
  4.647744E-01
  4.662145E-01
  4.654605E-01
  4.671545E-01
  4.665543E-01
  4.682513E-01
  4.674564E-01
  4.687533E-01
  4.674167E-01
  4.681677E-01
  4.664524E-01
  4.671270E-01
  4.656689E-01
  4.668340E-01
  4.659009E-01
  4.674084E-01
  4.664935E-01
  4.676892E-01
  4.662624E-01
  4.669537E-01
  4.652266E-01
  4.659327E-01
  4.645288E-01
  4.657606E-01
  4.649326E-01
  4.666489E-01
  4.661214E-01
  4.679214E-01
  4.672776E-01
  4.688127E-01
  4.678281E-01
  4.690287E-01
  4.677932E-01
  4.688772E-01
  4.676638E-01
  4.688608E-01
  4.677665E-01
  4.715043E-01
  4.698180E-01
  4.702121E-01
  4.680534E-01
  4.681969E-01
  4.660405E-01
  4.664047E-01
  4.646112E-01
  4.653943E-01
  4.640065E-01
  4.651434E-01
  4.640464E-01
  4.654172E-01
  4.645075E-01
  4.660245E-01
  4.652176E-01
  4.667850E-01
  4.659660E-01
  4.674544E-01
  4.664969E-01
  4.678097E-01
  4.666757E-01
  4.678532E-01
  4.666610E-01
  4.678765E-01
  4.668137E-01
  4.682204E-01
  4.673613E-01
  4.689233E-01
  4.681099E-01
  4.695606E-01
  4.684621E-01
  4.694825E-01
  4.678882E-01
  4.684675E-01
  4.666173E-01
  4.672254E-01
  4.657167E-01
  4.669139E-01
  4.660925E-01
  4.678803E-01
  4.673709E-01
  4.690826E-01
  4.681126E-01
  4.691012E-01
  4.673531E-01
  4.677390E-01
  4.657453E-01
  4.663187E-01
  4.648935E-01
  4.662569E-01
  4.656304E-01
  4.676037E-01
  4.672750E-01
  4.692154E-01
  4.686037E-01
  4.701544E-01
  4.691981E-01
  4.705554E-01
  4.695831E-01
  4.710429E-01
  4.701743E-01
  4.716124E-01
  4.705128E-01
  4.688258E-01
  4.677493E-01
  4.684142E-01
  4.673409E-01
  4.679785E-01
  4.668669E-01
  4.674577E-01
  4.662830E-01
  4.667970E-01
  4.655600E-01
  4.660759E-01
  4.649515E-01
  4.657033E-01
  4.649009E-01
  4.659845E-01
  4.654383E-01
  4.666421E-01
  4.660652E-01
  4.671167E-01
  4.663227E-01
  4.671557E-01
  4.661944E-01
  4.669429E-01
  4.659872E-01
  4.668143E-01
  4.659748E-01
  4.669165E-01
  4.661646E-01
  4.671658E-01
  4.664643E-01
  4.675255E-01
  4.668859E-01
  4.679670E-01
  4.672433E-01
  4.680965E-01
  4.670257E-01
  4.675143E-01
  4.662072E-01
  4.667120E-01
  4.657082E-01
  4.667180E-01
  4.662418E-01
  4.676030E-01
  4.671704E-01
  4.682583E-01
  4.673480E-01
  4.679339E-01
  4.666679E-01
  4.671436E-01