# vtk DataFile Version 2.0
title
ASCII
DATASET STRUCTURED_GRID
DIMENSIONS   64   64    1
POINTS   4096  float
  0.000000E+00  0.000000E+00  0.000000E+00
  0.000000E+00  3.906250E-01  0.000000E+00
  0.000000E+00  7.812500E-01  0.000000E+00
  0.000000E+00  1.171875E+00  0.000000E+00
  0.000000E+00  1.562500E+00  0.000000E+00
  0.000000E+00  1.953125E+00  0.000000E+00
  0.000000E+00  2.343750E+00  0.000000E+00
  0.000000E+00  2.734375E+00  0.000000E+00
  0.000000E+00  3.125000E+00  0.000000E+00
  0.000000E+00  3.515625E+00  0.000000E+00
  0.000000E+00  3.906250E+00  0.000000E+00
  0.000000E+00  4.296875E+00  0.000000E+00
  0.000000E+00  4.687500E+00  0.000000E+00
  0.000000E+00  5.078125E+00  0.000000E+00
  0.000000E+00  5.468750E+00  0.000000E+00
  0.000000E+00  5.859375E+00  0.000000E+00
  0.000000E+00  6.250000E+00  0.000000E+00
  0.000000E+00  6.640625E+00  0.000000E+00
  0.000000E+00  7.031250E+00  0.000000E+00
  0.000000E+00  7.421875E+00  0.000000E+00
  0.000000E+00  7.812500E+00  0.000000E+00
  0.000000E+00  8.203125E+00  0.000000E+00
  0.000000E+00  8.593750E+00  0.000000E+00
  0.000000E+00  8.984375E+00  0.000000E+00
  0.000000E+00  9.375000E+00  0.000000E+00
  0.000000E+00  9.765625E+00  0.000000E+00
  0.000000E+00  1.015625E+01  0.000000E+00
  0.000000E+00  1.054688E+01  0.000000E+00
  0.000000E+00  1.093750E+01  0.000000E+00
  0.000000E+00  1.132812E+01  0.000000E+00
  0.000000E+00  1.171875E+01  0.000000E+00
  0.000000E+00  1.210938E+01  0.000000E+00
  0.000000E+00  1.250000E+01  0.000000E+00
  0.000000E+00  1.289062E+01  0.000000E+00
  0.000000E+00  1.328125E+01  0.000000E+00
  0.000000E+00  1.367188E+01  0.000000E+00
  0.000000E+00  1.406250E+01  0.000000E+00
  0.000000E+00  1.445312E+01  0.000000E+00
  0.000000E+00  1.484375E+01  0.000000E+00
  0.000000E+00  1.523438E+01  0.000000E+00
  0.000000E+00  1.562500E+01  0.000000E+00
  0.000000E+00  1.601562E+01  0.000000E+00
  0.000000E+00  1.640625E+01  0.000000E+00
  0.000000E+00  1.679688E+01  0.000000E+00
  0.000000E+00  1.718750E+01  0.000000E+00
  0.000000E+00  1.757812E+01  0.000000E+00
  0.000000E+00  1.796875E+01  0.000000E+00
  0.000000E+00  1.835938E+01  0.000000E+00
  0.000000E+00  1.875000E+01  0.000000E+00
  0.000000E+00  1.914062E+01  0.000000E+00
  0.000000E+00  1.953125E+01  0.000000E+00
  0.000000E+00  1.992188E+01  0.000000E+00
  0.000000E+00  2.031250E+01  0.000000E+00
  0.000000E+00  2.070312E+01  0.000000E+00
  0.000000E+00  2.109375E+01  0.000000E+00
  0.000000E+00  2.148438E+01  0.000000E+00
  0.000000E+00  2.187500E+01  0.000000E+00
  0.000000E+00  2.226562E+01  0.000000E+00
  0.000000E+00  2.265625E+01  0.000000E+00
  0.000000E+00  2.304688E+01  0.000000E+00
  0.000000E+00  2.343750E+01  0.000000E+00
  0.000000E+00  2.382812E+01  0.000000E+00
  0.000000E+00  2.421875E+01  0.000000E+00
  0.000000E+00  2.460938E+01  0.000000E+00
  3.906250E-01  0.000000E+00  0.000000E+00
  3.906250E-01  3.906250E-01  0.000000E+00
  3.906250E-01  7.812500E-01  0.000000E+00
  3.906250E-01  1.171875E+00  0.000000E+00
  3.906250E-01  1.562500E+00  0.000000E+00
  3.906250E-01  1.953125E+00  0.000000E+00
  3.906250E-01  2.343750E+00  0.000000E+00
  3.906250E-01  2.734375E+00  0.000000E+00
  3.906250E-01  3.125000E+00  0.000000E+00
  3.906250E-01  3.515625E+00  0.000000E+00
  3.906250E-01  3.906250E+00  0.000000E+00
  3.906250E-01  4.296875E+00  0.000000E+00
  3.906250E-01  4.687500E+00  0.000000E+00
  3.906250E-01  5.078125E+00  0.000000E+00
  3.906250E-01  5.468750E+00  0.000000E+00
  3.906250E-01  5.859375E+00  0.000000E+00
  3.906250E-01  6.250000E+00  0.000000E+00
  3.906250E-01  6.640625E+00  0.000000E+00
  3.906250E-01  7.031250E+00  0.000000E+00
  3.906250E-01  7.421875E+00  0.000000E+00
  3.906250E-01  7.812500E+00  0.000000E+00
  3.906250E-01  8.203125E+00  0.000000E+00
  3.906250E-01  8.593750E+00  0.000000E+00
  3.906250E-01  8.984375E+00  0.000000E+00
  3.906250E-01  9.375000E+00  0.000000E+00
  3.906250E-01  9.765625E+00  0.000000E+00
  3.906250E-01  1.015625E+01  0.000000E+00
  3.906250E-01  1.054688E+01  0.000000E+00
  3.906250E-01  1.093750E+01  0.000000E+00
  3.906250E-01  1.132812E+01  0.000000E+00
  3.906250E-01  1.171875E+01  0.000000E+00
  3.906250E-01  1.210938E+01  0.000000E+00
  3.906250E-01  1.250000E+01  0.000000E+00
  3.906250E-01  1.289062E+01  0.000000E+00
  3.906250E-01  1.328125E+01  0.000000E+00
  3.906250E-01  1.367188E+01  0.000000E+00
  3.906250E-01  1.406250E+01  0.000000E+00
  3.906250E-01  1.445312E+01  0.000000E+00
  3.906250E-01  1.484375E+01  0.000000E+00
  3.906250E-01  1.523438E+01  0.000000E+00
  3.906250E-01  1.562500E+01  0.000000E+00
  3.906250E-01  1.601562E+01  0.000000E+00
  3.906250E-01  1.640625E+01  0.000000E+00
  3.906250E-01  1.679688E+01  0.000000E+00
  3.906250E-01  1.718750E+01  0.000000E+00
  3.906250E-01  1.757812E+01  0.000000E+00
  3.906250E-01  1.796875E+01  0.000000E+00
  3.906250E-01  1.835938E+01  0.000000E+00
  3.906250E-01  1.875000E+01  0.000000E+00
  3.906250E-01  1.914062E+01  0.000000E+00
  3.906250E-01  1.953125E+01  0.000000E+00
  3.906250E-01  1.992188E+01  0.000000E+00
  3.906250E-01  2.031250E+01  0.000000E+00
  3.906250E-01  2.070312E+01  0.000000E+00
  3.906250E-01  2.109375E+01  0.000000E+00
  3.906250E-01  2.148438E+01  0.000000E+00
  3.906250E-01  2.187500E+01  0.000000E+00
  3.906250E-01  2.226562E+01  0.000000E+00
  3.906250E-01  2.265625E+01  0.000000E+00
  3.906250E-01  2.304688E+01  0.000000E+00
  3.906250E-01  2.343750E+01  0.000000E+00
  3.906250E-01  2.382812E+01  0.000000E+00
  3.906250E-01  2.421875E+01  0.000000E+00
  3.906250E-01  2.460938E+01  0.000000E+00
  7.812500E-01  0.000000E+00  0.000000E+00
  7.812500E-01  3.906250E-01  0.000000E+00
  7.812500E-01  7.812500E-01  0.000000E+00
  7.812500E-01  1.171875E+00  0.000000E+00
  7.812500E-01  1.562500E+00  0.000000E+00
  7.812500E-01  1.953125E+00  0.000000E+00
  7.812500E-01  2.343750E+00  0.000000E+00
  7.812500E-01  2.734375E+00  0.000000E+00
  7.812500E-01  3.125000E+00  0.000000E+00
  7.812500E-01  3.515625E+00  0.000000E+00
  7.812500E-01  3.906250E+00  0.000000E+00
  7.812500E-01  4.296875E+00  0.000000E+00
  7.812500E-01  4.687500E+00  0.000000E+00
  7.812500E-01  5.078125E+00  0.000000E+00
  7.812500E-01  5.468750E+00  0.000000E+00
  7.812500E-01  5.859375E+00  0.000000E+00
  7.812500E-01  6.250000E+00  0.000000E+00
  7.812500E-01  6.640625E+00  0.000000E+00
  7.812500E-01  7.031250E+00  0.000000E+00
  7.812500E-01  7.421875E+00  0.000000E+00
  7.812500E-01  7.812500E+00  0.000000E+00
  7.812500E-01  8.203125E+00  0.000000E+00
  7.812500E-01  8.593750E+00  0.000000E+00
  7.812500E-01  8.984375E+00  0.000000E+00
  7.812500E-01  9.375000E+00  0.000000E+00
  7.812500E-01  9.765625E+00  0.000000E+00
  7.812500E-01  1.015625E+01  0.000000E+00
  7.812500E-01  1.054688E+01  0.000000E+00
  7.812500E-01  1.093750E+01  0.000000E+00
  7.812500E-01  1.132812E+01  0.000000E+00
  7.812500E-01  1.171875E+01  0.000000E+00
  7.812500E-01  1.210938E+01  0.000000E+00
  7.812500E-01  1.250000E+01  0.000000E+00
  7.812500E-01  1.289062E+01  0.000000E+00
  7.812500E-01  1.328125E+01  0.000000E+00
  7.812500E-01  1.367188E+01  0.000000E+00
  7.812500E-01  1.406250E+01  0.000000E+00
  7.812500E-01  1.445312E+01  0.000000E+00
  7.812500E-01  1.484375E+01  0.000000E+00
  7.812500E-01  1.523438E+01  0.000000E+00
  7.812500E-01  1.562500E+01  0.000000E+00
  7.812500E-01  1.601562E+01  0.000000E+00
  7.812500E-01  1.640625E+01  0.000000E+00
  7.812500E-01  1.679688E+01  0.000000E+00
  7.812500E-01  1.718750E+01  0.000000E+00
  7.812500E-01  1.757812E+01  0.000000E+00
  7.812500E-01  1.796875E+01  0.000000E+00
  7.812500E-01  1.835938E+01  0.000000E+00
  7.812500E-01  1.875000E+01  0.000000E+00
  7.812500E-01  1.914062E+01  0.000000E+00
  7.812500E-01  1.953125E+01  0.000000E+00
  7.812500E-01  1.992188E+01  0.000000E+00
  7.812500E-01  2.031250E+01  0.000000E+00
  7.812500E-01  2.070312E+01  0.000000E+00
  7.812500E-01  2.109375E+01  0.000000E+00
  7.812500E-01  2.148438E+01  0.000000E+00
  7.812500E-01  2.187500E+01  0.000000E+00
  7.812500E-01  2.226562E+01  0.000000E+00
  7.812500E-01  2.265625E+01  0.000000E+00
  7.812500E-01  2.304688E+01  0.000000E+00
  7.812500E-01  2.343750E+01  0.000000E+00
  7.812500E-01  2.382812E+01  0.000000E+00
  7.812500E-01  2.421875E+01  0.000000E+00
  7.812500E-01  2.460938E+01  0.000000E+00
  1.171875E+00  0.000000E+00  0.000000E+00
  1.171875E+00  3.906250E-01  0.000000E+00
  1.171875E+00  7.812500E-01  0.000000E+00
  1.171875E+00  1.171875E+00  0.000000E+00
  1.171875E+00  1.562500E+00  0.000000E+00
  1.171875E+00  1.953125E+00  0.000000E+00
  1.171875E+00  2.343750E+00  0.000000E+00
  1.171875E+00  2.734375E+00  0.000000E+00
  1.171875E+00  3.125000E+00  0.000000E+00
  1.171875E+00  3.515625E+00  0.000000E+00
  1.171875E+00  3.906250E+00  0.000000E+00
  1.171875E+00  4.296875E+00  0.000000E+00
  1.171875E+00  4.687500E+00  0.000000E+00
  1.171875E+00  5.078125E+00  0.000000E+00
  1.171875E+00  5.468750E+00  0.000000E+00
  1.171875E+00  5.859375E+00  0.000000E+00
  1.171875E+00  6.250000E+00  0.000000E+00
  1.171875E+00  6.640625E+00  0.000000E+00
  1.171875E+00  7.031250E+00  0.000000E+00
  1.171875E+00  7.421875E+00  0.000000E+00
  1.171875E+00  7.812500E+00  0.000000E+00
  1.171875E+00  8.203125E+00  0.000000E+00
  1.171875E+00  8.593750E+00  0.000000E+00
  1.171875E+00  8.984375E+00  0.000000E+00
  1.171875E+00  9.375000E+00  0.000000E+00
  1.171875E+00  9.765625E+00  0.000000E+00
  1.171875E+00  1.015625E+01  0.000000E+00
  1.171875E+00  1.054688E+01  0.000000E+00
  1.171875E+00  1.093750E+01  0.000000E+00
  1.171875E+00  1.132812E+01  0.000000E+00
  1.171875E+00  1.171875E+01  0.000000E+00
  1.171875E+00  1.210938E+01  0.000000E+00
  1.171875E+00  1.250000E+01  0.000000E+00
  1.171875E+00  1.289062E+01  0.000000E+00
  1.171875E+00  1.328125E+01  0.000000E+00
  1.171875E+00  1.367188E+01  0.000000E+00
  1.171875E+00  1.406250E+01  0.000000E+00
  1.171875E+00  1.445312E+01  0.000000E+00
[...]
POINT_DATA   4096
SCALARS CON  float  1
LOOKUP_TABLE default
  4.695411E-01
  4.683690E-01
  4.705884E-01
  4.691645E-01
  4.709079E-01
  4.689649E-01
  4.703104E-01
  4.681818E-01
  4.695565E-01
  4.676119E-01
  4.692490E-01
  4.675887E-01
  4.695071E-01
  4.681160E-01
  4.702719E-01
  4.690398E-01
  4.712085E-01
  4.697824E-01
  4.715320E-01
  4.695096E-01
  4.705973E-01
  4.679938E-01
  4.687158E-01
  4.660401E-01
  4.669813E-01
  4.647387E-01
  4.662054E-01
  4.644608E-01
  4.663194E-01
  4.648406E-01
  4.668681E-01
  4.655085E-01
  4.676350E-01
  4.663451E-01
  4.684662E-01
  4.670397E-01
  4.688631E-01
  4.670020E-01
  4.683399E-01
  4.660692E-01
  4.672023E-01
  4.650187E-01
  4.665416E-01
  4.649741E-01
  4.671914E-01
  4.662162E-01
  4.687644E-01
  4.677729E-01
  4.699784E-01
  4.684449E-01
  4.701024E-01
  4.682059E-01
  4.697989E-01
  4.681239E-01
  4.700875E-01
  4.687265E-01
  4.707633E-01
  4.691570E-01
  4.706992E-01
  4.685404E-01
  4.697040E-01
  4.675101E-01
  4.690135E-01
  4.674129E-01
  4.712688E-01
  4.704665E-01
  4.715509E-01
  4.702045E-01
  4.706773E-01
  4.688594E-01
  4.691519E-01
  4.674867E-01
  4.681938E-01
  4.670638E-01
  4.682810E-01
  4.675414E-01
  4.690077E-01
  4.684092E-01
  4.699537E-01
  4.693864E-01
  4.708867E-01
  4.701439E-01
  4.712944E-01
  4.700370E-01
  4.705865E-01
  4.687742E-01
  4.689588E-01
  4.670751E-01
  4.675065E-01
  4.661223E-01
  4.671704E-01
  4.663591E-01
  4.677991E-01
  4.671250E-01
  4.684549E-01
  4.675006E-01
  4.684940E-01
  4.672550E-01
  4.680815E-01
  4.668002E-01
  4.676652E-01
  4.664382E-01
  4.673243E-01
  4.660786E-01
  4.669466E-01
  4.657506E-01
  4.667920E-01
  4.659023E-01
  4.673296E-01
  4.668033E-01
  4.684605E-01
  4.679597E-01
  4.694441E-01
  4.686576E-01
  4.698743E-01
  4.689573E-01
  4.702310E-01
  4.695133E-01
  4.710051E-01
  4.703780E-01
  4.717355E-01
  4.707519E-01
  4.716405E-01
  4.702492E-01
  4.709522E-01
  4.696717E-01
  4.707304E-01
  4.698899E-01
  4.681644E-01
  4.685283E-01
  4.693988E-01
  4.695339E-01
  4.698781E-01
  4.694060E-01
  4.692714E-01
  4.685755E-01
  4.684877E-01
  4.680376E-01
  4.682895E-01
  4.681857E-01
  4.687461E-01
  4.689020E-01
  4.696658E-01
  4.699384E-01
  4.706744E-01
  4.707122E-01
  4.709775E-01
  4.703460E-01
  4.698549E-01
  4.685410E-01
  4.676031E-01
  4.661864E-01
  4.655091E-01
  4.646425E-01
  4.646662E-01
  4.644970E-01
  4.650933E-01
  4.653124E-01
  4.661147E-01
  4.663962E-01
  4.671575E-01
  4.673119E-01
  4.678504E-01
  4.676677E-01
  4.677579E-01
  4.670636E-01
  4.666755E-01
  4.656609E-01
  4.652235E-01
  4.644905E-01
  4.646421E-01
  4.646936E-01
  4.656485E-01
  4.663284E-01
  4.675837E-01
  4.681746E-01
  4.690078E-01
  4.690047E-01
  4.692864E-01
  4.689652E-01
  4.692544E-01
  4.692182E-01
  4.698953E-01
  4.701179E-01
  4.707346E-01
  4.705183E-01
  4.704260E-01
  4.694708E-01
  4.688867E-01
  4.678848E-01
  4.677325E-01
  4.674930E-01
  4.695184E-01
  4.702618E-01
  4.699662E-01
  4.701937E-01
  4.692675E-01
  4.689765E-01
  4.678230E-01
  4.676625E-01
  4.669376E-01
  4.673565E-01
  4.671967E-01
  4.680498E-01
  4.681568E-01
  4.691400E-01
  4.692939E-01
  4.702691E-01
  4.703391E-01
  4.710976E-01
  4.707673E-01
  4.709435E-01
  4.699279E-01
  4.694608E-01
  4.680100E-01
  4.674433E-01
  4.662697E-01
  4.662942E-01
  4.658769E-01
  4.666349E-01
  4.667588E-01
  4.677622E-01
  4.678215E-01
  4.685189E-01
  4.681499E-01
  4.684222E-01
  4.677230E-01
  4.677961E-01
  4.670130E-01
  4.670740E-01
  4.663124E-01
  4.664195E-01
  4.657530E-01
  4.660437E-01
  4.656723E-01
  4.663490E-01
  4.663823E-01
  4.673792E-01
  4.675553E-01
  4.684786E-01
  4.684049E-01
  4.690135E-01
  4.686994E-01
  4.692488E-01
  4.690805E-01
  4.699037E-01
  4.699870E-01
  4.708809E-01
  4.707599E-01
  4.711938E-01
  4.704920E-01
  4.704248E-01
  4.694855E-01
  4.695321E-01
  4.690079E-01
  4.695983E-01
  4.662597E-01
  4.679752E-01
  4.676253E-01
  4.691690E-01
  4.683248E-01
  4.692661E-01
  4.679285E-01
  4.686253E-01
  4.673204E-01
  4.682608E-01
  4.673024E-01
  4.685978E-01
  4.679511E-01
  4.695006E-01
  4.690447E-01
  4.706944E-01
  4.701901E-01
  4.715764E-01
  4.705585E-01
  4.712150E-01
  4.693671E-01
  4.692672E-01
  4.669171E-01
  4.666961E-01
  4.646355E-01
  4.650389E-01
  4.637860E-01
  4.650055E-01
  4.644333E-01
  4.661194E-01
  4.657891E-01
  4.675260E-01
  4.670985E-01
  4.686172E-01
  4.678568E-01
  4.689293E-01
  4.676330E-01
  4.681452E-01
  4.663701E-01
  4.666068E-01
  4.648569E-01
  4.654531E-01
  4.643441E-01
  4.657269E-01
  4.653645E-01
  4.672702E-01
  4.670805E-01
  4.687829E-01
  4.681014E-01
  4.692013E-01
  4.680174E-01
  4.688848E-01
  4.678017E-01
  4.690295E-01
  4.683782E-01
  4.698770E-01
  4.691559E-01
  4.701974E-01
  4.687488E-01
  4.690379E-01
  4.670910E-01
  4.673360E-01
  4.658372E-01
  4.668796E-01
  4.677024E-01
  4.694373E-01
  4.682369E-01
  4.695624E-01
  4.678281E-01
  4.686960E-01
  4.667464E-01
  4.677113E-01
  4.661275E-01
  4.676007E-01
  4.665211E-01
  4.683887E-01
  4.675596E-01
  4.695610E-01
  4.687951E-01
  4.708076E-01
  4.699697E-01
  4.717610E-01
  4.704964E-01
  4.716586E-01
  4.696507E-01
  4.701159E-01
  4.676396E-01
  4.680045E-01
  4.658400E-01
  4.668582E-01
  4.655253E-01
  4.673497E-01
  4.666150E-01
  4.687184E-01
  4.679274E-01
  4.697088E-01
  4.684520E-01
  4.697539E-01
  4.681025E-01
  4.691410E-01
  4.673544E-01
  4.683546E-01
  4.665948E-01
  4.676749E-01
  4.660577E-01
  4.673590E-01
  4.660394E-01
  4.676765E-01
  4.666579E-01
  4.684759E-01
  4.674571E-01
  4.690904E-01
  4.677686E-01
  4.690989E-01
  4.675999E-01
  4.689587E-01
  4.676894E-01
  4.693843E-01
  4.684059E-01
  4.701993E-01
  4.690475E-01
  4.704224E-01
  4.687374E-01
  4.696507E-01
  4.677444E-01
  4.687599E-01
  4.672396E-01
  4.687742E-01
  4.647362E-01
  4.669971E-01
  4.661407E-01
  4.683941E-01
  4.672055E-01
  4.689684E-01
  4.673166E-01
  4.687788E-01
  4.670386E-01
  4.685966E-01
  4.670681E-01
  4.688888E-01
  4.676352E-01
  4.697243E-01
  4.687099E-01
  4.709593E-01
  4.699471E-01
  4.719593E-01
  4.704307E-01
  4.716869E-01
  4.692924E-01
  4.697639E-01
  4.668603E-01
  4.672305E-01
  4.646580E-01
  4.657026E-01
  4.639804E-01
  4.658645E-01
  4.648233E-01
  4.671551E-01
  4.663256E-01
  4.686749E-01
  4.677165E-01
  4.698181E-01
  4.684986E-01
  4.701289E-01
  4.682567E-01
  4.693252E-01
  4.669918E-01
  4.678176E-01
  4.655444E-01
  4.667460E-01
  4.650903E-01
  4.670042E-01
  4.659752E-01
  4.682688E-01
  4.672800E-01
  4.692811E-01
  4.677738E-01
  4.692062E-01
  4.672693E-01
  4.685501E-01
  4.667769E-01
  4.684535E-01
  4.671293E-01
  4.690971E-01
  4.677448E-01
  4.693229E-01
  4.673219E-01
  4.682096E-01
  4.657295E-01
  4.665407E-01
  4.644407E-01
  4.659821E-01
  4.665929E-01
  4.684392E-01
  4.671220E-01
  4.687710E-01
  4.671322E-01
  4.684715E-01
  4.666561E-01
  4.680117E-01
  4.663887E-01
  4.680386E-01
  4.667228E-01
  4.686320E-01
  4.675146E-01
  4.695831E-01
  4.686071E-01
  4.707844E-01
  4.698231E-01
  4.718359E-01
  4.704704E-01
  4.718511E-01
  4.697309E-01
  4.704120E-01
  4.678398E-01
  4.684557E-01
  4.662379E-01
  4.675400E-01
  4.661615E-01
  4.682452E-01
  4.674119E-01
  4.697067E-01
  4.687509E-01
  4.706722E-01
  4.692198E-01
  4.706493E-01
  4.688021E-01
  4.699755E-01
  4.680071E-01
  4.691652E-01
  4.672572E-01
  4.685351E-01
  4.668037E-01
  4.683126E-01
  4.668482E-01
  4.686159E-01
  4.673384E-01
  4.691615E-01
  4.677799E-01
  4.693641E-01
  4.676868E-01
  4.690262E-01
  4.672528E-01
  4.686912E-01
  4.671839E-01
  4.689580E-01
  4.677225E-01
  4.695864E-01
  4.682023E-01
  4.697100E-01
  4.678726E-01
  4.689808E-01
  4.669342E-01
  4.680952E-01
  4.663425E-01
  4.679326E-01
  4.640718E-01
  4.661068E-01
  4.654352E-01
  4.676933E-01
  4.669216E-01
  4.688505E-01
  4.676541E-01
  4.691847E-01
  4.676958E-01
  4.690710E-01
  4.675635E-01
  4.690462E-01
  4.677582E-01
  4.695472E-01
  4.685994E-01
  4.706727E-01
  4.698390E-01
  4.717539E-01
  4.704461E-01
  4.716217E-01
  4.694565E-01
  4.698630E-01
  4.672180E-01
  4.675610E-01
  4.652790E-01
  4.663054E-01
  4.648471E-01
  4.666487E-01
  4.657800E-01
  4.679299E-01
  4.671866E-01
  4.692956E-01
  4.683975E-01
  4.702613E-01
  4.690235E-01
  4.704478E-01
  4.686955E-01
  4.696020E-01
  4.674381E-01
  4.681520E-01
  4.660867E-01
  4.671874E-01
  4.657102E-01
  4.674519E-01
  4.665017E-01
  4.685224E-01
  4.675427E-01
  4.692556E-01
  4.678010E-01
  4.690296E-01
  4.672366E-01
  4.683760E-01
  4.667582E-01
  4.682557E-01
  4.670252E-01
  4.687639E-01
  4.674958E-01
  4.688823E-01
  4.670302E-01
  4.677809E-01
  4.654581E-01
  4.660793E-01
  4.640396E-01
  4.652956E-01
  4.663401E-01
  4.677632E-01
  4.668014E-01
  4.682337E-01
  4.671631E-01
  4.684345E-01
  4.672197E-01
  4.684089E-01
  4.671845E-01
  4.684213E-01
  4.672813E-01
  4.686325E-01
  4.676482E-01
  4.692103E-01
  4.684807E-01
  4.702855E-01
  4.696901E-01
  4.714162E-01
  4.704672E-01
  4.715880E-01
  4.699026E-01
  4.703450E-01
  4.682346E-01
  4.686366E-01
  4.668895E-01
  4.679576E-01
  4.669940E-01
  4.687558E-01
  4.682321E-01
  4.701026E-01
  4.693758E-01
  4.708263E-01
  4.695917E-01
  4.705676E-01
  4.689741E-01
  4.697400E-01
  4.680775E-01
  4.688858E-01
  4.673453E-01
  4.683320E-01
  4.670107E-01
  4.682399E-01
  4.671555E-01
  4.685739E-01
  4.675857E-01
  4.689773E-01
  4.678428E-01
  4.690135E-01
  4.676601E-01
  4.686972E-01
  4.673534E-01
  4.685506E-01
  4.674671E-01
  4.689317E-01
  4.680191E-01
  4.694814E-01
  4.683724E-01
  4.694879E-01
  4.679757E-01
  4.687459E-01
  4.670438E-01
  4.678299E-01
  4.663386E-01
  4.674635E-01
  4.641750E-01
  4.657190E-01
  4.654478E-01
  4.673527E-01
  4.671362E-01
  4.688254E-01
  4.682093E-01
  4.694209E-01
  4.683491E-01
  4.692077E-01
  4.679439E-01
  4.688063E-01
  4.677475E-01
  4.689809E-01
  4.683755E-01
  4.700178E-01
  4.696332E-01
  4.711923E-01
  4.703786E-01
  4.712237E-01
  4.695695E-01
  4.696603E-01
  4.675372E-01
  4.675634E-01
  4.657807E-01
  4.664404E-01
  4.654061E-01
  4.667502E-01
  4.662146E-01
  4.678323E-01
  4.673752E-01
  4.689366E-01
  4.683367E-01
  4.696835E-01
  4.687849E-01
  4.697393E-01
  4.683796E-01
  4.688771E-01
  4.671722E-01
  4.675397E-01
  4.659760E-01
  4.667366E-01
  4.657219E-01
  4.670446E-01
  4.664611E-01
  4.679840E-01
  4.673423E-01
  4.685975E-01
  4.675842E-01
  4.684917E-01
  4.672648E-01
  4.681522E-01
  4.670896E-01
  4.682490E-01
  4.674447E-01
  4.687208E-01
  4.678019E-01
  4.687165E-01
  4.672616E-01
  4.676108E-01
  4.657346E-01
  4.659525E-01
  4.643035E-01
  4.650730E-01
  4.667574E-01
  4.676966E-01
  4.671001E-01
  4.680837E-01
  4.674480E-01
  4.683346E-01
  4.675753E-01
  4.683389E-01
  4.674775E-01
  4.681767E-01
  4.673082E-01
  4.680824E-01
  4.673928E-01
  4.684517E-01
  4.681160E-01
  4.695145E-01
  4.693887E-01
  4.707580E-01
  4.703070E-01
  4.710871E-01
  4.699096E-01
  4.700138E-01
  4.684001E-01
  4.684321E-01
  4.671260E-01
  4.677489E-01
  4.671434E-01
  4.683847E-01
  4.681655E-01
  4.694918E-01
  4.690754E-01
  4.700095E-01
  4.691232E-01
  4.696209E-01
  4.684103E-01
  4.687318E-01
  4.674929E-01
  4.679101E-01
  4.668567E-01
  4.675135E-01
  4.667177E-01
  4.676125E-01
  4.669969E-01
  4.679811E-01
  4.673464E-01
  4.682120E-01
  4.674001E-01
  4.680940E-01
  4.671849E-01
  4.679049E-01
  4.671526E-01
  4.681190E-01
  4.676240E-01
  4.687689E-01
  4.683042E-01
  4.693066E-01
  4.685551E-01
  4.691983E-01
  4.681053E-01
  4.685052E-01
  4.673166E-01
  4.677767E-01
  4.667744E-01
  4.674925E-01
  4.648909E-01
  4.659605E-01
  4.660018E-01
  4.673524E-01
  4.674247E-01
  4.685722E-01
  4.682669E-01
  4.689484E-01
  4.681841E-01
  4.685053E-01
  4.675554E-01
  4.679133E-01
  4.672283E-01
  4.680324E-01
  4.678730E-01
  4.691409E-01
  4.692352E-01
  4.704358E-01
  4.701097E-01
  4.706043E-01
  4.694439E-01
  4.691794E-01
  4.675224E-01
  4.671364E-01
  4.657374E-01
  4.658919E-01
  4.651594E-01
  4.659480E-01
  4.657069E-01
  4.668035E-01
  4.667034E-01
  4.678134E-01
  4.676286E-01
  4.685602E-01
  4.680928E-01
  4.686407E-01
  4.677300E-01
  4.678590E-01
  4.666591E-01
  4.667154E-01
  4.656893E-01
  4.661215E-01
  4.655666E-01
  4.664337E-01
  4.661663E-01
  4.671183E-01
  4.667477E-01
  4.674795E-01
  4.668692E-01
  4.674320E-01
  4.667787E-01
  4.674309E-01
  4.669579E-01
  4.678058E-01
  4.674564E-01
  4.682828E-01
  4.677316E-01
  4.681947E-01
  4.671925E-01
  4.672290E-01
  4.659456E-01
  4.659388E-01
  4.648842E-01
  4.653421E-01
  4.677677E-01
  4.681877E-01
  4.678838E-01
  4.681677E-01
  4.677205E-01
  4.678797E-01
  4.673403E-01
  4.674446E-01
  4.668896E-01
  4.670244E-01
  4.665606E-01
  4.668666E-01
  4.666678E-01
  4.673234E-01
  4.675138E-01
  4.685151E-01
  4.689027E-01
  4.698594E-01
  4.699175E-01
  4.702958E-01
  4.696435E-01
  4.693490E-01
  4.682322E-01
  4.677981E-01
  4.668917E-01
  4.669452E-01
  4.666603E-01
  4.673028E-01
  4.674342E-01
  4.682414E-01
  4.682798E-01
  4.687920E-01
  4.684259E-01
  4.685252E-01
  4.678247E-01
  4.677265E-01
  4.669900E-01
  4.670092E-01
  4.665074E-01
  4.668216E-01
  4.666067E-01
  4.671325E-01
  4.670024E-01
  4.674652E-01
  4.671440E-01
  4.673473E-01
  4.667851E-01
  4.668553E-01
  4.663299E-01
  4.666172E-01
  4.664392E-01
  4.671070E-01
  4.672286E-01
  4.680235E-01
  4.680624E-01
  4.685943E-01
  4.682749E-01
  4.684622E-01
  4.679066E-01
  4.680160E-01
  4.675346E-01
  4.678180E-01
  4.675363E-01
  4.679768E-01
  4.661708E-01
  4.666083E-01
  4.669713E-01
  4.674468E-01
  4.676889E-01
  4.679138E-01
  4.678255E-01
  4.677018E-01
  4.673136E-01
  4.670027E-01
  4.665929E-01
  4.664550E-01
  4.664037E-01
  4.667547E-01
  4.672231E-01
  4.679973E-01
  4.686685E-01
  4.693402E-01
  4.695883E-01
  4.695845E-01
  4.690439E-01
  4.683130E-01
  4.672679E-01
  4.663567E-01
  4.654709E-01
  4.649912E-01
  4.646898E-01
  4.648190E-01
  4.650510E-01
  4.655835E-01
  4.660733E-01
  4.667203E-01
  4.671822E-01
  4.676545E-01
  4.677983E-01
  4.678409E-01
  4.675154E-01
  4.671518E-01
  4.665854E-01
  4.662082E-01
  4.658482E-01
  4.658189E-01
  4.658264E-01
  4.660652E-01
  4.661694E-01
  4.663324E-01
  4.662523E-01
  4.662208E-01
  4.660287E-01
  4.660207E-01
  4.659868E-01
  4.662223E-01
  4.664390E-01
  4.668520E-01
  4.671133E-01
  4.674143E-01
  4.674244E-01
  4.673898E-01
  4.670595E-01
  4.667645E-01
  4.663218E-01
  4.660944E-01
  4.658861E-01
  4.660042E-01
  4.692416E-01
  4.688845E-01
  4.689578E-01
  4.682121E-01
  4.679852E-01
  4.670722E-01
  4.668190E-01
  4.660011E-01
  4.659315E-01
  4.653554E-01
  4.655674E-01
  4.653061E-01
  4.658627E-01
  4.659629E-01
  4.668639E-01
  4.672337E-01
  4.682587E-01
  4.685461E-01
  4.692580E-01
  4.690339E-01
  4.691276E-01
  4.683100E-01
  4.679708E-01
  4.669805E-01
  4.667628E-01
  4.661472E-01
  4.664551E-01
  4.663838E-01
  4.671283E-01
  4.672952E-01
  4.680419E-01
  4.679931E-01
  4.683708E-01
  4.678937E-01
  4.678864E-01
  4.671567E-01
  4.670853E-01
  4.664900E-01
  4.667105E-01
  4.664799E-01
  4.670298E-01
  4.669904E-01
  4.675255E-01
  4.672570E-01
  4.674073E-01
  4.667112E-01
  4.665277E-01
  4.657090E-01
  4.656733E-01
  4.652505E-01
  4.657581E-01
  4.658779E-01
  4.667789E-01
  4.670440E-01
  4.678256E-01
  4.677755E-01
  4.681737E-01
  4.678108E-01
  4.680670E-01
  4.677605E-01
  4.682215E-01
  4.681647E-01
  4.688042E-01
  4.687682E-01
  4.677002E-01
  4.672569E-01
  4.680274E-01
  4.674157E-01
  4.679463E-01
  4.670688E-01
  4.673521E-01
  4.662842E-01
  4.664664E-01
  4.654138E-01
  4.657468E-01
  4.649836E-01
  4.657219E-01
  4.654254E-01
  4.666095E-01
  4.666425E-01
  4.679541E-01
  4.678623E-01
  4.687997E-01
  4.681452E-01
  4.684399E-01
  4.671927E-01
  4.670634E-01
  4.656386E-01
  4.655973E-01
  4.644875E-01
  4.649105E-01
  4.643238E-01
  4.652483E-01
  4.650830E-01
  4.663094E-01
  4.662975E-01
  4.675058E-01
  4.672938E-01
  4.681369E-01
  4.674534E-01
  4.678178E-01
  4.667644E-01
  4.669622E-01
  4.659794E-01
  4.664394E-01
  4.657981E-01
  4.665422E-01
  4.660202E-01
  4.666825E-01
  4.659250E-01
  4.663066E-01
  4.653477E-01
  4.656994E-01
  4.649098E-01
  4.655889E-01
  4.651943E-01
  4.662297E-01
  4.660642E-01
  4.671532E-01
  4.668667E-01
  4.677047E-01
  4.671107E-01
  4.676670E-01
  4.668866E-01
  4.673909E-01
  4.666914E-01
  4.673688E-01
  4.668683E-01
  4.706384E-01
  4.694184E-01
  4.698489E-01
  4.681248E-01
  4.682077E-01
  4.663437E-01
  4.664944E-01
  4.648655E-01
  4.653584E-01
  4.641199E-01
  4.650079E-01
  4.641450E-01
  4.653787E-01
  4.648245E-01
  4.663152E-01
  4.659398E-01
  4.674968E-01
  4.670455E-01
  4.683748E-01
  4.675674E-01
  4.684710E-01
  4.672524E-01
  4.678488E-01
  4.664971E-01
  4.671646E-01
  4.660692E-01
  4.671144E-01
  4.664255E-01
  4.678065E-01
  4.672994E-01
  4.686603E-01
  4.679296E-01
  4.689106E-01
  4.677318E-01
  4.683067E-01
  4.668700E-01
  4.674081E-01
  4.661714E-01
  4.670949E-01
  4.663188E-01
  4.676377E-01
  4.670618E-01
  4.683071E-01
  4.673857E-01
  4.681011E-01
  4.666168E-01
  4.669078E-01
  4.652757E-01
  4.657556E-01
  4.646111E-01
  4.657518E-01
  4.652674E-01
  4.669012E-01
  4.666372E-01
  4.682040E-01
  4.676615E-01
  4.688732E-01
  4.680408E-01
  4.691255E-01
  4.683491E-01
  4.696123E-01
  4.690231E-01
  4.703594E-01
  4.696443E-01
  4.687632E-01
  4.676469E-01
  4.686107E-01
  4.673270E-01
  4.680933E-01
  4.666197E-01
  4.672349E-01
  4.656707E-01
  4.662717E-01
  4.647832E-01
  4.655601E-01
  4.643478E-01
  4.654810E-01
  4.646602E-01
  4.661553E-01
  4.655955E-01
  4.671924E-01
  4.665477E-01
  4.678855E-01
  4.668591E-01
  4.677710E-01
  4.663606E-01
  4.670041E-01
  4.654851E-01
  4.661876E-01
  4.648694E-01
  4.658676E-01
  4.648877E-01
  4.662198E-01
  4.655315E-01
  4.670793E-01
  4.664966E-01
  4.680077E-01
  4.672283E-01
  4.683985E-01
  4.671953E-01
  4.679598E-01
  4.664819E-01
  4.671851E-01
  4.658741E-01
  4.669055E-01
  4.659558E-01
  4.672405E-01
  4.663372E-01
  4.674446E-01
  4.662109E-01
  4.669633E-01
  4.654859E-01
  4.661995E-01
  4.649113E-01
  4.659941E-01
  4.651591E-01
  4.666702E-01
  4.661472E-01
  4.677998E-01
  4.672378E-01
  4.687002E-01
  4.678553E-01
  4.690146E-01
  4.679144E-01
  4.689129E-01
  4.677589E-01
  4.687868E-01
  4.676956E-01
  4.711993E-01
  4.696621E-01
  4.700161E-01
  4.680950E-01
  4.682353E-01
  4.662969E-01
  4.665958E-01
  4.649388E-01
  4.655779E-01
  4.642662E-01
  4.652241E-01
  4.641947E-01
  4.654022E-01
  4.645948E-01
  4.659933E-01
  4.653314E-01
  4.668082E-01
  4.661384E-01
  4.675156E-01
  4.666698E-01
  4.678312E-01
  4.667799E-01
  4.677970E-01
  4.666996E-01
  4.677806E-01
  4.668398E-01
  4.681265E-01
  4.673808E-01
  4.687894E-01
  4.680415E-01
  4.692977E-01
  4.682553E-01
  4.691211E-01
  4.676717E-01
  4.682113E-01
  4.666088E-01
  4.672274E-01
  4.659388E-01
  4.670434E-01
  4.662934E-01
  4.678434E-01
  4.673146E-01
  4.687868E-01
  4.678901E-01
  4.687989E-01
  4.672990E-01
  4.677370E-01
  4.660354E-01
  4.666014E-01
  4.653254E-01
  4.665015E-01
  4.658639E-01
  4.675559E-01
  4.672106E-01
  4.689457E-01
  4.684440E-01
  4.699220E-01
  4.691706E-01
  4.704845E-01
  4.696754E-01
  4.709992E-01
  4.701891E-01
  4.714170E-01
  4.703630E-01
  4.687279E-01
  4.677453E-01
  4.683094E-01
  4.673822E-01
  4.679622E-01
  4.670073E-01
  4.675187E-01
  4.664652E-01
  4.668721E-01
  4.657461E-01
  4.661554E-01
  4.651392E-01
  4.657707E-01
  4.650576E-01
  4.660110E-01
  4.655640E-01
  4.666645E-01
  4.662152E-01
  4.671752E-01
  4.664947E-01
  4.672007E-01
  4.663098E-01
  4.668954E-01
  4.659898E-01
  4.666506E-01
  4.658741E-01
  4.666786E-01
  4.660321E-01
  4.669421E-01
  4.663791E-01
  4.673523E-01
  4.668209E-01
  4.677681E-01
  4.671243E-01
  4.678643E-01
  4.669497E-01
  4.674275E-01
  4.663512E-01
  4.668418E-01
  4.659711E-01
  4.668063E-01
  4.663073E-01
  4.674134E-01
  4.669906E-01
  4.679547E-01
  4.672261E-01
  4.678282E-01
  4.668009E-01
  4.672584E-01