# vtk DataFile Version 2.0
title
ASCII
DATASET STRUCTURED_GRID
DIMENSIONS   64   64    1
POINTS   4096  float
  0.000000E+00  0.000000E+00  0.000000E+00
  0.000000E+00  3.906250E-01  0.000000E+00
  0.000000E+00  7.812500E-01  0.000000E+00
  0.000000E+00  1.171875E+00  0.000000E+00
  0.000000E+00  1.562500E+00  0.000000E+00
  0.000000E+00  1.953125E+00  0.000000E+00
  0.000000E+00  2.343750E+00  0.000000E+00
  0.000000E+00  2.734375E+00  0.000000E+00
  0.000000E+00  3.125000E+00  0.000000E+00
  0.000000E+00  3.515625E+00  0.000000E+00
  0.000000E+00  3.906250E+00  0.000000E+00
  0.000000E+00  4.296875E+00  0.000000E+00
  0.000000E+00  4.687500E+00  0.000000E+00
  0.000000E+00  5.078125E+00  0.000000E+00
  0.000000E+00  5.468750E+00  0.000000E+00
  0.000000E+00  5.859375E+00  0.000000E+00
  0.000000E+00  6.250000E+00  0.000000E+00
  0.000000E+00  6.640625E+00  0.000000E+00
  0.000000E+00  7.031250E+00  0.000000E+00
  0.000000E+00  7.421875E+00  0.000000E+00
  0.000000E+00  7.812500E+00  0.000000E+00
  0.000000E+00  8.203125E+00  0.000000E+00
  0.000000E+00  8.593750E+00  0.000000E+00
  0.000000E+00  8.984375E+00  0.000000E+00
  0.000000E+00  9.375000E+00  0.000000E+00
  0.000000E+00  9.765625E+00  0.000000E+00
  0.000000E+00  1.015625E+01  0.000000E+00
  0.000000E+00  1.054688E+01  0.000000E+00
  0.000000E+00  1.093750E+01  0.000000E+00
  0.000000E+00  1.132812E+01  0.000000E+00
  0.000000E+00  1.171875E+01  0.000000E+00
  0.000000E+00  1.210938E+01  0.000000E+00
  0.000000E+00  1.250000E+01  0.000000E+00
  0.000000E+00  1.289062E+01  0.000000E+00
  0.000000E+00  1.328125E+01  0.000000E+00
  0.000000E+00  1.367188E+01  0.000000E+00
  0.000000E+00  1.406250E+01  0.000000E+00
  0.000000E+00  1.445312E+01  0.000000E+00
  0.000000E+00  1.484375E+01  0.000000E+00
  0.000000E+00  1.523438E+01  0.000000E+00
  0.000000E+00  1.562500E+01  0.000000E+00
  0.000000E+00  1.601562E+01  0.000000E+00
  0.000000E+00  1.640625E+01  0.000000E+00
  0.000000E+00  1.679688E+01  0.000000E+00
  0.000000E+00  1.718750E+01  0.000000E+00
  0.000000E+00  1.757812E+01  0.000000E+00
  0.000000E+00  1.796875E+01  0.000000E+00
  0.000000E+00  1.835938E+01  0.000000E+00
  0.000000E+00  1.875000E+01  0.000000E+00
  0.000000E+00  1.914062E+01  0.000000E+00
  0.000000E+00  1.953125E+01  0.000000E+00
  0.000000E+00  1.992188E+01  0.000000E+00
  0.000000E+00  2.031250E+01  0.000000E+00
  0.000000E+00  2.070312E+01  0.000000E+00
  0.000000E+00  2.109375E+01  0.000000E+00
  0.000000E+00  2.148438E+01  0.000000E+00
  0.000000E+00  2.187500E+01  0.000000E+00
  0.000000E+00  2.226562E+01  0.000000E+00
  0.000000E+00  2.265625E+01  0.000000E+00
  0.000000E+00  2.304688E+01  0.000000E+00
  0.000000E+00  2.343750E+01  0.000000E+00
  0.000000E+00  2.382812E+01  0.000000E+00
  0.000000E+00  2.421875E+01  0.000000E+00
  0.000000E+00  2.460938E+01  0.000000E+00
  3.906250E-01  0.000000E+00  0.000000E+00
  3.906250E-01  3.906250E-01  0.000000E+00
  3.906250E-01  7.812500E-01  0.000000E+00
  3.906250E-01  1.171875E+00  0.000000E+00
  3.906250E-01  1.562500E+00  0.000000E+00
  3.906250E-01  1.953125E+00  0.000000E+00
  3.906250E-01  2.343750E+00  0.000000E+00
  3.906250E-01  2.734375E+00  0.000000E+00
  3.906250E-01  3.125000E+00  0.000000E+00
  3.906250E-01  3.515625E+00  0.000000E+00
  3.906250E-01  3.906250E+00  0.000000E+00
  3.906250E-01  4.296875E+00  0.000000E+00
  3.906250E-01  4.687500E+00  0.000000E+00
  3.906250E-01  5.078125E+00  0.000000E+00
  3.906250E-01  5.468750E+00  0.000000E+00
  3.906250E-01  5.859375E+00  0.000000E+00
  3.906250E-01  6.250000E+00  0.000000E+00
  3.906250E-01  6.640625E+00  0.000000E+00
  3.906250E-01  7.031250E+00  0.000000E+00
  3.906250E-01  7.421875E+00  0.000000E+00
  3.906250E-01  7.812500E+00  0.000000E+00
  3.906250E-01  8.203125E+00  0.000000E+00
  3.906250E-01  8.593750E+00  0.000000E+00
  3.906250E-01  8.984375E+00  0.000000E+00
  3.906250E-01  9.375000E+00  0.000000E+00
  3.906250E-01  9.765625E+00  0.000000E+00
  3.906250E-01  1.015625E+01  0.000000E+00
  3.906250E-01  1.054688E+01  0.000000E+00
  3.906250E-01  1.093750E+01  0.000000E+00
  3.906250E-01  1.132812E+01  0.000000E+00
  3.906250E-01  1.171875E+01  0.000000E+00
  3.906250E-01  1.210938E+01  0.000000E+00
  3.906250E-01  1.250000E+01  0.000000E+00
  3.906250E-01  1.289062E+01  0.000000E+00
  3.906250E-01  1.328125E+01  0.000000E+00
  3.906250E-01  1.367188E+01  0.000000E+00
  3.906250E-01  1.406250E+01  0.000000E+00
  3.906250E-01  1.445312E+01  0.000000E+00
  3.906250E-01  1.484375E+01  0.000000E+00
  3.906250E-01  1.523438E+01  0.000000E+00
  3.906250E-01  1.562500E+01  0.000000E+00
  3.906250E-01  1.601562E+01  0.000000E+00
  3.906250E-01  1.640625E+01  0.000000E+00
  3.906250E-01  1.679688E+01  0.000000E+00
  3.906250E-01  1.718750E+01  0.000000E+00
  3.906250E-01  1.757812E+01  0.000000E+00
  3.906250E-01  1.796875E+01  0.000000E+00
  3.906250E-01  1.835938E+01  0.000000E+00
  3.906250E-01  1.875000E+01  0.000000E+00
  3.906250E-01  1.914062E+01  0.000000E+00
  3.906250E-01  1.953125E+01  0.000000E+00
  3.906250E-01  1.992188E+01  0.000000E+00
  3.906250E-01  2.031250E+01  0.000000E+00
  3.906250E-01  2.070312E+01  0.000000E+00
  3.906250E-01  2.109375E+01  0.000000E+00
  3.906250E-01  2.148438E+01  0.000000E+00
  3.906250E-01  2.187500E+01  0.000000E+00
  3.906250E-01  2.226562E+01  0.000000E+00
  3.906250E-01  2.265625E+01  0.000000E+00
  3.906250E-01  2.304688E+01  0.000000E+00
  3.906250E-01  2.343750E+01  0.000000E+00
  3.906250E-01  2.382812E+01  0.000000E+00
  3.906250E-01  2.421875E+01  0.000000E+00
  3.906250E-01  2.460938E+01  0.000000E+00
  7.812500E-01  0.000000E+00  0.000000E+00
  7.812500E-01  3.906250E-01  0.000000E+00
  7.812500E-01  7.812500E-01  0.000000E+00
  7.812500E-01  1.171875E+00  0.000000E+00
  7.812500E-01  1.562500E+00  0.000000E+00
  7.812500E-01  1.953125E+00  0.000000E+00
  7.812500E-01  2.343750E+00  0.000000E+00
  7.812500E-01  2.734375E+00  0.000000E+00
  7.812500E-01  3.125000E+00  0.000000E+00
  7.812500E-01  3.515625E+00  0.000000E+00
  7.812500E-01  3.906250E+00  0.000000E+00
  7.812500E-01  4.296875E+00  0.000000E+00
  7.812500E-01  4.687500E+00  0.000000E+00
  7.812500E-01  5.078125E+00  0.000000E+00
  7.812500E-01  5.468750E+00  0.000000E+00
  7.812500E-01  5.859375E+00  0.000000E+00
  7.812500E-01  6.250000E+00  0.000000E+00
  7.812500E-01  6.640625E+00  0.000000E+00
  7.812500E-01  7.031250E+00  0.000000E+00
  7.812500E-01  7.421875E+00  0.000000E+00
  7.812500E-01  7.812500E+00  0.000000E+00
  7.812500E-01  8.203125E+00  0.000000E+00
  7.812500E-01  8.593750E+00  0.000000E+00
  7.812500E-01  8.984375E+00  0.000000E+00
  7.812500E-01  9.375000E+00  0.000000E+00
  7.812500E-01  9.765625E+00  0.000000E+00
  7.812500E-01  1.015625E+01  0.000000E+00
  7.812500E-01  1.054688E+01  0.000000E+00
  7.812500E-01  1.093750E+01  0.000000E+00
  7.812500E-01  1.132812E+01  0.000000E+00
  7.812500E-01  1.171875E+01  0.000000E+00
  7.812500E-01  1.210938E+01  0.000000E+00
  7.812500E-01  1.250000E+01  0.000000E+00
  7.812500E-01  1.289062E+01  0.000000E+00
  7.812500E-01  1.328125E+01  0.000000E+00
  7.812500E-01  1.367188E+01  0.000000E+00
  7.812500E-01  1.406250E+01  0.000000E+00
  7.812500E-01  1.445312E+01  0.000000E+00
  7.812500E-01  1.484375E+01  0.000000E+00
  7.812500E-01  1.523438E+01  0.000000E+00
  7.812500E-01  1.562500E+01  0.000000E+00
  7.812500E-01  1.601562E+01  0.000000E+00
  7.812500E-01  1.640625E+01  0.000000E+00
  7.812500E-01  1.679688E+01  0.000000E+00
  7.812500E-01  1.718750E+01  0.000000E+00
  7.812500E-01  1.757812E+01  0.000000E+00
  7.812500E-01  1.796875E+01  0.000000E+00
  7.812500E-01  1.835938E+01  0.000000E+00
  7.812500E-01  1.875000E+01  0.000000E+00
  7.812500E-01  1.914062E+01  0.000000E+00
  7.812500E-01  1.953125E+01  0.000000E+00
  7.812500E-01  1.992188E+01  0.000000E+00
  7.812500E-01  2.031250E+01  0.000000E+00
  7.812500E-01  2.070312E+01  0.000000E+00
  7.812500E-01  2.109375E+01  0.000000E+00
  7.812500E-01  2.148438E+01  0.000000E+00
  7.812500E-01  2.187500E+01  0.000000E+00
  7.812500E-01  2.226562E+01  0.000000E+00
  7.812500E-01  2.265625E+01  0.000000E+00
  7.812500E-01  2.304688E+01  0.000000E+00
  7.812500E-01  2.343750E+01  0.000000E+00
  7.812500E-01  2.382812E+01  0.000000E+00
  7.812500E-01  2.421875E+01  0.000000E+00
  7.812500E-01  2.460938E+01  0.000000E+00
  1.171875E+00  0.000000E+00  0.000000E+00
  1.171875E+00  3.906250E-01  0.000000E+00
  1.171875E+00  7.812500E-01  0.000000E+00
  1.171875E+00  1.171875E+00  0.000000E+00
  1.171875E+00  1.562500E+00  0.000000E+00
  1.171875E+00  1.953125E+00  0.000000E+00
  1.171875E+00  2.343750E+00  0.000000E+00
  1.171875E+00  2.734375E+00  0.000000E+00
  1.171875E+00  3.125000E+00  0.000000E+00
  1.171875E+00  3.515625E+00  0.000000E+00
  1.171875E+00  3.906250E+00  0.000000E+00
  1.171875E+00  4.296875E+00  0.000000E+00
  1.171875E+00  4.687500E+00  0.000000E+00
  1.171875E+00  5.078125E+00  0.000000E+00
  1.171875E+00  5.468750E+00  0.000000E+00
  1.171875E+00  5.859375E+00  0.000000E+00
  1.171875E+00  6.250000E+00  0.000000E+00
  1.171875E+00  6.640625E+00  0.000000E+00
  1.171875E+00  7.031250E+00  0.000000E+00
  1.171875E+00  7.421875E+00  0.000000E+00
  1.171875E+00  7.812500E+00  0.000000E+00
  1.171875E+00  8.203125E+00  0.000000E+00
  1.171875E+00  8.593750E+00  0.000000E+00
  1.171875E+00  8.984375E+00  0.000000E+00
  1.171875E+00  9.375000E+00  0.000000E+00
  1.171875E+00  9.765625E+00  0.000000E+00
  1.171875E+00  1.015625E+01  0.000000E+00
  1.171875E+00  1.054688E+01  0.000000E+00
  1.171875E+00  1.093750E+01  0.000000E+00
  1.171875E+00  1.132812E+01  0.000000E+00
  1.171875E+00  1.171875E+01  0.000000E+00
  1.171875E+00  1.210938E+01  0.000000E+00
  1.171875E+00  1.250000E+01  0.000000E+00
  1.171875E+00  1.289062E+01  0.000000E+00
  1.171875E+00  1.328125E+01  0.000000E+00
  1.171875E+00  1.367188E+01  0.000000E+00
  1.171875E+00  1.406250E+01  0.000000E+00
  1.171875E+00  1.445312E+01  0.000000E+00
[...]
POINT_DATA   4096
SCALARS CON  float  1
LOOKUP_TABLE default
  4.694954E-01
  4.686284E-01
  4.712989E-01
  4.697989E-01
  4.715227E-01
  4.691947E-01
  4.705018E-01
  4.682080E-01
  4.698225E-01
  4.678596E-01
  4.696657E-01
  4.677583E-01
  4.696137E-01
  4.678891E-01
  4.700961E-01
  4.687829E-01
  4.712605E-01
  4.698908E-01
  4.719098E-01
  4.697541E-01
  4.708555E-01
  4.678953E-01
  4.685190E-01
  4.655277E-01
  4.665599E-01
  4.642854E-01
  4.661271E-01
  4.645281E-01
  4.667586E-01
  4.652429E-01
  4.673648E-01
  4.657254E-01
  4.678442E-01
  4.663371E-01
  4.686096E-01
  4.671065E-01
  4.691108E-01
  4.670706E-01
  4.684058E-01
  4.657748E-01
  4.667945E-01
  4.642407E-01
  4.657449E-01
  4.640023E-01
  4.664865E-01
  4.656754E-01
  4.687977E-01
  4.681212E-01
  4.707887E-01
  4.691832E-01
  4.707688E-01
  4.683543E-01
  4.697495E-01
  4.678486E-01
  4.702119E-01
  4.692415E-01
  4.719913E-01
  4.705960E-01
  4.722282E-01
  4.694849E-01
  4.701291E-01
  4.671969E-01
  4.685331E-01
  4.668656E-01
  4.713819E-01
  4.709264E-01
  4.724039E-01
  4.709792E-01
  4.713209E-01
  4.690489E-01
  4.691471E-01
  4.672797E-01
  4.682033E-01
  4.672130E-01
  4.687434E-01
  4.679629E-01
  4.694051E-01
  4.684681E-01
  4.698895E-01
  4.691208E-01
  4.707772E-01
  4.700937E-01
  4.715080E-01
  4.702230E-01
  4.708157E-01
  4.687375E-01
  4.688164E-01
  4.666609E-01
  4.671146E-01
  4.656707E-01
  4.669743E-01
  4.662966E-01
  4.680941E-01
  4.675289E-01
  4.690580E-01
  4.679573E-01
  4.688769E-01
  4.672972E-01
  4.680044E-01
  4.664910E-01
  4.674320E-01
  4.661453E-01
  4.671600E-01
  4.657548E-01
  4.665497E-01
  4.650018E-01
  4.659080E-01
  4.648083E-01
  4.664338E-01
  4.661187E-01
  4.683226E-01
  4.681567E-01
  4.700152E-01
  4.691537E-01
  4.702789E-01
  4.689942E-01
  4.702185E-01
  4.695091E-01
  4.714813E-01
  4.712689E-01
  4.731561E-01
  4.722134E-01
  4.729740E-01
  4.709595E-01
  4.711457E-01
  4.692852E-01
  4.702710E-01
  4.694976E-01
  4.679406E-01
  4.689348E-01
  4.702640E-01
  4.704954E-01
  4.705939E-01
  4.696814E-01
  4.691549E-01
  4.682715E-01
  4.682567E-01
  4.680303E-01
  4.685146E-01
  4.685056E-01
  4.690014E-01
  4.689762E-01
  4.695688E-01
  4.697581E-01
  4.705474E-01
  4.707212E-01
  4.711421E-01
  4.705901E-01
  4.700742E-01
  4.686201E-01
  4.674925E-01
  4.658932E-01
  4.651250E-01
  4.642796E-01
  4.644414E-01
  4.644550E-01
  4.652170E-01
  4.655055E-01
  4.662793E-01
  4.664528E-01
  4.671088E-01
  4.672031E-01
  4.677607E-01
  4.676293E-01
  4.677577E-01
  4.670147E-01
  4.664819E-01
  4.652274E-01
  4.645224E-01
  4.635447E-01
  4.635582E-01
  4.636159E-01
  4.647642E-01
  4.657904E-01
  4.674874E-01
  4.684764E-01
  4.695474E-01
  4.695214E-01
  4.695553E-01
  4.688806E-01
  4.689309E-01
  4.689311E-01
  4.699896E-01
  4.708068E-01
  4.720022E-01
  4.720660E-01
  4.718130E-01
  4.702732E-01
  4.689152E-01
  4.672429E-01
  4.668011E-01
  4.667320E-01
  4.694044E-01
  4.708167E-01
  4.707554E-01
  4.711017E-01
  4.697183E-01
  4.690114E-01
  4.672531E-01
  4.669676E-01
  4.662124E-01
  4.670815E-01
  4.672005E-01
  4.684305E-01
  4.684457E-01
  4.693648E-01
  4.691528E-01
  4.700784E-01
  4.700398E-01
  4.710799E-01
  4.708594E-01
  4.713188E-01
  4.702176E-01
  4.697524E-01
  4.679793E-01
  4.673071E-01
  4.658482E-01
  4.659112E-01
  4.654027E-01
  4.663901E-01
  4.665638E-01
  4.678478E-01
  4.678941E-01
  4.687048E-01
  4.681079E-01
  4.683213E-01
  4.673459E-01
  4.674595E-01
  4.665921E-01
  4.668683E-01
  4.660759E-01
  4.662943E-01
  4.653913E-01
  4.656051E-01
  4.649454E-01
  4.656848E-01
  4.657209E-01
  4.671030E-01
  4.674889E-01
  4.687815E-01
  4.686657E-01
  4.692536E-01
  4.685453E-01
  4.689385E-01
  4.685483E-01
  4.696413E-01
  4.699939E-01
  4.714728E-01
  4.715846E-01
  4.721971E-01
  4.711054E-01
  4.706357E-01
  4.690138E-01
  4.687828E-01
  4.680769E-01
  4.690723E-01
  4.658588E-01
  4.684053E-01
  4.682722E-01
  4.700649E-01
  4.686802E-01
  4.692772E-01
  4.672187E-01
  4.678464E-01
  4.663800E-01
  4.678094E-01
  4.669966E-01
  4.687425E-01
  4.679467E-01
  4.695993E-01
  4.687920E-01
  4.705786E-01
  4.699455E-01
  4.717365E-01
  4.707483E-01
  4.717712E-01
  4.697309E-01
  4.696885E-01
  4.668780E-01
  4.665882E-01
  4.641182E-01
  4.646432E-01
  4.632207E-01
  4.647510E-01
  4.640815E-01
  4.660284E-01
  4.654830E-01
  4.673787E-01
  4.667175E-01
  4.684743E-01
  4.676114E-01
  4.690258E-01
  4.676349E-01
  4.683810E-01
  4.663260E-01
  4.666110E-01
  4.644729E-01
  4.651313E-01
  4.637689E-01
  4.654286E-01
  4.650433E-01
  4.674012E-01
  4.672449E-01
  4.692953E-01
  4.683846E-01
  4.694738E-01
  4.677275E-01
  4.684221E-01
  4.668900E-01
  4.683336E-01
  4.677660E-01
  4.699352E-01
  4.694561E-01
  4.709253E-01
  4.691493E-01
  4.692045E-01
  4.664737E-01
  4.664564E-01
  4.646115E-01
  4.661207E-01
  4.675350E-01
  4.699217E-01
  4.687545E-01
  4.702475E-01
  4.679402E-01
  4.684948E-01
  4.658316E-01
  4.667545E-01
  4.650203E-01
  4.670465E-01
  4.661731E-01
  4.685719E-01
  4.676099E-01
  4.697069E-01
  4.685280E-01
  4.706539E-01
  4.696808E-01
  4.719402E-01
  4.707567E-01
  4.723389E-01
  4.701217E-01
  4.706146E-01
  4.676060E-01
  4.678593E-01
  4.652245E-01
  4.663352E-01
  4.647908E-01
  4.669462E-01
  4.661702E-01
  4.686785E-01
  4.678118E-01
  4.698685E-01
  4.683600E-01
  4.697920E-01
  4.678466E-01
  4.690992E-01
  4.671819E-01
  4.685425E-01
  4.666915E-01
  4.680385E-01
  4.661585E-01
  4.675801E-01
  4.659652E-01
  4.678245E-01
  4.666872E-01
  4.688721E-01
  4.677497E-01
  4.695968E-01
  4.678918E-01
  4.691361E-01
  4.670624E-01
  4.683474E-01
  4.667352E-01
  4.687290E-01
  4.677752E-01
  4.700784E-01
  4.689181E-01
  4.705444E-01
  4.684827E-01
  4.693307E-01
  4.669227E-01
  4.680033E-01
  4.663324E-01
  4.683819E-01
  4.643981E-01
  4.672333E-01
  4.665311E-01
  4.689672E-01
  4.673907E-01
  4.688889E-01
  4.666962E-01
  4.680892E-01
  4.662359E-01
  4.681633E-01
  4.667650E-01
  4.689176E-01
  4.675475E-01
  4.696911E-01
  4.684301E-01
  4.708292E-01
  4.698322E-01
  4.722653E-01
  4.708658E-01
  4.724136E-01
  4.698121E-01
  4.701695E-01
  4.667520E-01
  4.669197E-01
  4.639843E-01
  4.651369E-01
  4.633845E-01
  4.656026E-01
  4.645861E-01
  4.671579E-01
  4.661990E-01
  4.686789E-01
  4.675923E-01
  4.699315E-01
  4.686271E-01
  4.705812E-01
  4.686883E-01
  4.699216E-01
  4.673500E-01
  4.681611E-01
  4.655861E-01
  4.668492E-01
  4.650695E-01
  4.672464E-01
  4.662382E-01
  4.688302E-01
  4.677746E-01
  4.698829E-01
  4.680561E-01
  4.693389E-01
  4.668898E-01
  4.679612E-01
  4.657942E-01
  4.675516E-01
  4.662208E-01
  4.686236E-01
  4.674493E-01
  4.693954E-01
  4.672741E-01
  4.681263E-01
  4.652017E-01
  4.658935E-01
  4.635635E-01
  4.654174E-01
  4.665169E-01
  4.685890E-01
  4.674000E-01
  4.690830E-01
  4.672725E-01
  4.683656E-01
  4.662639E-01
  4.675035E-01
  4.659207E-01
  4.678133E-01
  4.667367E-01
  4.688214E-01
  4.676580E-01
  4.695786E-01
  4.684001E-01
  4.705454E-01
  4.697092E-01
  4.720366E-01
  4.709509E-01
  4.725028E-01
  4.702773E-01
  4.706849E-01
  4.677067E-01
  4.680107E-01
  4.655984E-01
  4.669359E-01
  4.657032E-01
  4.680523E-01
  4.674479E-01
  4.699614E-01
  4.691002E-01
  4.710675E-01
  4.695489E-01
  4.709242E-01
  4.690035E-01
  4.702028E-01
  4.682784E-01
  4.695438E-01
  4.676708E-01
  4.689574E-01
  4.671330E-01
  4.685762E-01
  4.670494E-01
  4.688734E-01
  4.676750E-01
  4.696257E-01
  4.682675E-01
  4.698019E-01
  4.679126E-01
  4.690002E-01
  4.669257E-01
  4.681727E-01
  4.665531E-01
  4.683836E-01
  4.672540E-01
  4.692918E-01
  4.680060E-01
  4.695822E-01
  4.676989E-01
  4.687540E-01
  4.666043E-01
  4.677359E-01
  4.659809E-01
  4.676965E-01
  4.637440E-01
  4.658907E-01
  4.655584E-01
  4.678797E-01
  4.672453E-01
  4.690027E-01
  4.678022E-01
  4.691740E-01
  4.678101E-01
  4.691627E-01
  4.678134E-01
  4.691640E-01
  4.678429E-01
  4.693537E-01
  4.683873E-01
  4.703869E-01
  4.698453E-01
  4.719453E-01
  4.709873E-01
  4.721478E-01
  4.699460E-01
  4.699344E-01
  4.670191E-01
  4.669907E-01
  4.647474E-01
  4.658365E-01
  4.647869E-01
  4.668071E-01
  4.662470E-01
  4.683397E-01
  4.676088E-01
  4.694926E-01
  4.686350E-01
  4.704553E-01
  4.694711E-01
  4.709619E-01
  4.693960E-01
  4.701477E-01
  4.678982E-01
  4.682634E-01
  4.660842E-01
  4.669802E-01
  4.656360E-01
  4.674175E-01
  4.667541E-01
  4.688390E-01
  4.680545E-01
  4.696676E-01
  4.682192E-01
  4.691724E-01
  4.672547E-01
  4.680636E-01
  4.663714E-01
  4.677051E-01
  4.666552E-01
  4.685017E-01
  4.676056E-01
  4.691285E-01
  4.674875E-01
  4.680746E-01
  4.656384E-01
  4.658800E-01
  4.637116E-01
  4.647808E-01
  4.661359E-01
  4.674229E-01
  4.667506E-01
  4.681812E-01
  4.674134E-01
  4.685926E-01
  4.675644E-01
  4.686027E-01
  4.675898E-01
  4.687295E-01
  4.677883E-01
  4.689050E-01
  4.678939E-01
  4.690316E-01
  4.682595E-01
  4.698539E-01
  4.695799E-01
  4.714266E-01
  4.709124E-01
  4.719741E-01
  4.703340E-01
  4.703169E-01
  4.680456E-01
  4.680779E-01
  4.665063E-01
  4.676259E-01
  4.671621E-01
  4.690886E-01
  4.689586E-01
  4.707455E-01
  4.701307E-01
  4.712739E-01
  4.700361E-01
  4.707058E-01
  4.692006E-01
  4.697921E-01
  4.683281E-01
  4.689986E-01
  4.676028E-01
  4.683396E-01
  4.670616E-01
  4.680197E-01
  4.670659E-01
  4.683777E-01
  4.676869E-01
  4.690630E-01
  4.682007E-01
  4.692285E-01
  4.679763E-01
  4.687289E-01
  4.674301E-01
  4.683901E-01
  4.674782E-01
  4.688577E-01
  4.682357E-01
  4.696607E-01
  4.688152E-01
  4.698157E-01
  4.684693E-01
  4.690241E-01
  4.673871E-01
  4.678602E-01
  4.663627E-01
  4.671709E-01
  4.636185E-01
  4.651007E-01
  4.652078E-01
  4.672446E-01
  4.674420E-01
  4.691751E-01
  4.688292E-01
  4.699436E-01
  4.690231E-01
  4.696703E-01
  4.684229E-01
  4.689215E-01
  4.677569E-01
  4.686075E-01
  4.680322E-01
  4.695686E-01
  4.695391E-01
  4.712267E-01
  4.707949E-01
  4.715580E-01
  4.699228E-01
  4.695850E-01
  4.673257E-01
  4.670525E-01
  4.655051E-01
  4.663151E-01
  4.658338E-01
  4.673621E-01
  4.671128E-01
  4.684748E-01
  4.678980E-01
  4.690123E-01
  4.683803E-01
  4.695679E-01
  4.689527E-01
  4.699190E-01
  4.687863E-01
  4.690535E-01
  4.672820E-01
  4.672251E-01
  4.655912E-01
  4.661076E-01
  4.653001E-01
  4.666397E-01
  4.664238E-01
  4.679975E-01
  4.676561E-01
  4.688398E-01
  4.679894E-01
  4.686963E-01
  4.675279E-01
  4.681577E-01
  4.671717E-01
  4.681846E-01
  4.676461E-01
  4.689854E-01
  4.684771E-01
  4.694562E-01
  4.682363E-01
  4.683322E-01
  4.663277E-01
  4.660065E-01
  4.641220E-01
  4.644631E-01
  4.663447E-01
  4.671735E-01
  4.667466E-01
  4.678651E-01
  4.675464E-01
  4.685773E-01
  4.680336E-01
  4.687969E-01
  4.680201E-01
  4.686123E-01
  4.677173E-01
  4.682445E-01
  4.673838E-01
  4.681225E-01
  4.676954E-01
  4.690274E-01
  4.691592E-01
  4.707519E-01
  4.706401E-01
  4.714623E-01
  4.702619E-01
  4.700479E-01
  4.682383E-01
  4.680553E-01
  4.668794E-01
  4.676743E-01
  4.674652E-01
  4.689136E-01
  4.688988E-01
  4.701118E-01
  4.695836E-01
  4.701971E-01
  4.691446E-01
  4.694029E-01
  4.681864E-01
  4.684384E-01
  4.673126E-01
  4.676942E-01
  4.667063E-01
  4.672387E-01
  4.664397E-01
  4.672131E-01
  4.666822E-01
  4.676848E-01
  4.672636E-01
  4.682063E-01
  4.675711E-01
  4.682301E-01
  4.673643E-01
  4.679559E-01
  4.672358E-01
  4.681507E-01
  4.678193E-01
  4.690401E-01
  4.688056E-01
  4.698614E-01
  4.692410E-01
  4.698041E-01
  4.687180E-01
  4.689416E-01
  4.676807E-01
  4.678845E-01
  4.667347E-01
  4.671649E-01
  4.642893E-01
  4.654638E-01
  4.656385E-01
  4.672527E-01
  4.675226E-01
  4.689071E-01
  4.687018E-01
  4.694759E-01
  4.686418E-01
  4.688789E-01
  4.676972E-01
  4.678546E-01
  4.669050E-01
  4.675907E-01
  4.673682E-01
  4.687990E-01
  4.691077E-01
  4.706424E-01
  4.705158E-01
  4.711295E-01
  4.698249E-01
  4.693452E-01
  4.673689E-01
  4.668397E-01
  4.654163E-01
  4.658087E-01
  4.653305E-01
  4.663889E-01
  4.661650E-01
  4.671421E-01
  4.667134E-01
  4.675724E-01
  4.671953E-01
  4.681908E-01
  4.678483E-01
  4.686142E-01
  4.677535E-01
  4.678586E-01
  4.664444E-01
  4.663336E-01
  4.651394E-01
  4.656069E-01
  4.651391E-01
  4.662373E-01
  4.661282E-01
  4.672605E-01
  4.669258E-01
  4.677052E-01
  4.670286E-01
  4.675788E-01
  4.668360E-01
  4.674855E-01
  4.669707E-01
  4.679053E-01
  4.676326E-01
  4.686554E-01
  4.682294E-01
  4.688336E-01
  4.677897E-01
  4.677279E-01
  4.661633E-01
  4.658967E-01
  4.645307E-01
  4.648383E-01
  4.675661E-01
  4.680869E-01
  4.676622E-01
  4.681324E-01
  4.676567E-01
  4.680487E-01
  4.674608E-01
  4.677276E-01
  4.670354E-01
  4.672462E-01
  4.665630E-01
  4.668658E-01
  4.663892E-01
  4.670466E-01
  4.670701E-01
  4.682936E-01
  4.687829E-01
  4.701664E-01
  4.703575E-01
  4.709774E-01
  4.701151E-01
  4.697006E-01
  4.681465E-01
  4.675884E-01
  4.664455E-01
  4.666705E-01
  4.663994E-01
  4.673204E-01
  4.674134E-01
  4.683455E-01
  4.681785E-01
  4.687054E-01
  4.681073E-01
  4.682651E-01
  4.674122E-01
  4.674523E-01
  4.666192E-01
  4.667991E-01
  4.661961E-01
  4.666589E-01
  4.663471E-01
  4.670561E-01
  4.668857E-01
  4.675794E-01
  4.672184E-01
  4.675848E-01
  4.668595E-01
  4.669599E-01
  4.661882E-01
  4.665163E-01
  4.662029E-01
  4.670843E-01
  4.672341E-01
  4.683219E-01
  4.683399E-01
  4.689982E-01
  4.684411E-01
  4.685818E-01
  4.677329E-01
  4.678709E-01
  4.672484E-01
  4.677019E-01
  4.673410E-01
  4.679236E-01
  4.660304E-01
  4.667288E-01
  4.669772E-01
  4.676393E-01
  4.677277E-01
  4.681391E-01
  4.679086E-01
  4.679569E-01
  4.673636E-01
  4.671240E-01
  4.664100E-01
  4.662948E-01
  4.659763E-01
  4.664776E-01
  4.668708E-01
  4.680030E-01
  4.687646E-01
  4.698642E-01
  4.701406E-01
  4.703650E-01
  4.695538E-01
  4.687357E-01
  4.671942E-01
  4.661452E-01
  4.649066E-01
  4.645589E-01
  4.641718E-01
  4.645739E-01
  4.646874E-01
  4.653439E-01
  4.655763E-01
  4.663341E-01
  4.666808E-01
  4.674845E-01
  4.676765E-01
  4.680475E-01
  4.675874E-01
  4.672820E-01
  4.663672E-01
  4.660031E-01
  4.654380E-01
  4.656735E-01
  4.657046E-01
  4.663030E-01
  4.663554E-01
  4.666811E-01
  4.663302E-01
  4.663157E-01
  4.658276E-01
  4.659182E-01
  4.657204E-01
  4.661735E-01
  4.662916E-01
  4.669246E-01
  4.670414E-01
  4.674897E-01
  4.672740E-01
  4.673128E-01
  4.667085E-01
  4.664853E-01
  4.658275E-01
  4.657844E-01
  4.654942E-01
  4.659035E-01
  4.696435E-01
  4.694160E-01
  4.692276E-01
  4.684568E-01
  4.679484E-01
  4.670805E-01
  4.666449E-01
  4.659546E-01
  4.657511E-01
  4.653195E-01
  4.653921E-01
  4.652580E-01
  4.656613E-01
  4.658998E-01
  4.667042E-01
  4.673187E-01
  4.683771E-01
  4.690066E-01
  4.697538E-01
  4.697427E-01
  4.696286E-01
  4.687379E-01
  4.679571E-01
  4.667884E-01
  4.661753E-01
  4.655443E-01
  4.656694E-01
  4.657811E-01
  4.664922E-01
  4.669377E-01
  4.677007E-01
  4.679382E-01
  4.682941E-01
  4.680189E-01
  4.678741E-01
  4.672314E-01
  4.669456E-01
  4.664235E-01
  4.664826E-01
  4.664283E-01
  4.669389E-01
  4.671777E-01
  4.677157E-01
  4.676770E-01
  4.676842E-01
  4.670055E-01
  4.664671E-01
  4.655379E-01
  4.651668E-01
  4.648112E-01
  4.652653E-01
  4.657330E-01
  4.667444E-01
  4.673251E-01
  4.679826E-01
  4.678909E-01
  4.678243E-01
  4.672415E-01
  4.671061E-01
  4.668926E-01
  4.674015E-01
  4.678359E-01
  4.687339E-01
  4.691518E-01
  4.681373E-01
  4.678322E-01
  4.684828E-01
  4.677480E-01
  4.680297E-01
  4.670497E-01
  4.672008E-01
  4.661575E-01
  4.662797E-01
  4.652574E-01
  4.655079E-01
  4.647771E-01
  4.654884E-01
  4.653213E-01
  4.665767E-01
  4.668005E-01
  4.681937E-01
  4.682598E-01
  4.692150E-01
  4.686246E-01
  4.688054E-01
  4.674574E-01
  4.670509E-01
  4.654217E-01
  4.651084E-01
  4.639124E-01
  4.642440E-01
  4.637382E-01
  4.646746E-01
  4.646360E-01
  4.659143E-01
  4.661118E-01
  4.674919E-01
  4.675783E-01
  4.685630E-01
  4.679854E-01
  4.681841E-01
  4.669408E-01
  4.668288E-01
  4.657387E-01
  4.661615E-01
  4.657424E-01
  4.666729E-01
  4.663810E-01
  4.670188E-01
  4.661633E-01
  4.662289E-01
  4.650471E-01
  4.651710E-01
  4.644084E-01
  4.651540E-01
  4.650014E-01
  4.661636E-01
  4.661418E-01
  4.671562E-01
  4.667891E-01
  4.673774E-01
  4.666240E-01
  4.669694E-01
  4.661851E-01
  4.667244E-01
  4.663007E-01
  4.672443E-01
  4.671186E-01
  4.714284E-01
  4.700964E-01
  4.703855E-01
  4.682990E-01
  4.681685E-01
  4.660233E-01
  4.661280E-01
  4.644016E-01
  4.650025E-01
  4.637736E-01
  4.648313E-01
  4.640000E-01
  4.653900E-01
  4.648250E-01
  4.664145E-01
  4.659772E-01
  4.676086E-01
  4.671035E-01
  4.685329E-01
  4.676852E-01
  4.686624E-01
  4.673287E-01
  4.678930E-01
  4.663248E-01
  4.668997E-01
  4.655924E-01
  4.666217E-01
  4.658616E-01
  4.674116E-01
  4.670288E-01
  4.687165E-01
  4.681769E-01
  4.694222E-01
  4.682442E-01
  4.688166E-01
  4.671233E-01
  4.674988E-01
  4.659956E-01
  4.668949E-01
  4.660871E-01
  4.676304E-01
  4.671987E-01
  4.687054E-01
  4.677996E-01
  4.685093E-01
  4.667158E-01
  4.667328E-01
  4.646887E-01
  4.650144E-01
  4.637748E-01
  4.651704E-01
  4.649457E-01
  4.670033E-01
  4.669157E-01
  4.685975E-01
  4.678085E-01
  4.687548E-01
  4.674848E-01
  4.683828E-01
  4.674978E-01
  4.690376E-01
  4.687678E-01
  4.706186E-01
  4.701923E-01
  4.693008E-01
  4.680474E-01
  4.690917E-01
  4.674110E-01
  4.681138E-01
  4.662572E-01
  4.669430E-01
  4.651648E-01
  4.659646E-01
  4.643252E-01
  4.653260E-01
  4.639922E-01
  4.653986E-01
  4.645005E-01
  4.662642E-01
  4.655527E-01
  4.673003E-01
  4.664032E-01
  4.678628E-01
  4.666349E-01
  4.677560E-01
  4.662056E-01
  4.670565E-01
  4.653444E-01
  4.661952E-01
  4.646601E-01
  4.658267E-01
  4.646720E-01
  4.662143E-01
  4.653948E-01
  4.672202E-01
  4.666076E-01
  4.684986E-01
  4.677200E-01
  4.691598E-01
  4.676975E-01
  4.684027E-01
  4.664106E-01
  4.670060E-01
  4.653839E-01
  4.666852E-01
  4.658075E-01
  4.675708E-01
  4.666731E-01
  4.679459E-01
  4.663011E-01
  4.668862E-01
  4.648910E-01
  4.655902E-01
  4.641150E-01
  4.655444E-01
  4.647763E-01
  4.667128E-01
  4.661772E-01
  4.680886E-01
  4.673360E-01
  4.689138E-01
  4.677830E-01
  4.690132E-01
  4.676451E-01
  4.688106E-01
  4.675569E-01
  4.689432E-01
  4.678829E-01
  4.718023E-01
  4.699545E-01
  4.703755E-01
  4.679703E-01
  4.681172E-01
  4.657497E-01
  4.661894E-01
  4.642662E-01
  4.651965E-01
  4.637347E-01
  4.650589E-01
  4.639109E-01
  4.654672E-01
  4.644713E-01
  4.661057E-01
  4.651282E-01
  4.667427E-01
  4.657270E-01
  4.672941E-01
  4.662183E-01
  4.677049E-01
  4.665286E-01
  4.679125E-01
  4.666625E-01
  4.680330E-01
  4.668479E-01
  4.683573E-01
  4.673576E-01
  4.690493E-01
  4.681604E-01
  4.698160E-01
  4.686850E-01
  4.698849E-01
  4.681562E-01
  4.687658E-01
  4.666423E-01
  4.672103E-01
  4.654580E-01
  4.667374E-01
  4.658460E-01
  4.678830E-01
  4.674092E-01
  4.693782E-01
  4.683462E-01
  4.694142E-01
  4.674018E-01
  4.677112E-01
  4.654027E-01
  4.659762E-01
  4.644133E-01
  4.659909E-01
  4.654054E-01
  4.676839E-01
  4.673839E-01
  4.695325E-01
  4.688079E-01
  4.704263E-01
  4.692571E-01
  4.706491E-01
  4.695038E-01
  4.710928E-01
  4.701622E-01
  4.718101E-01
  4.706623E-01
  4.688807E-01
  4.677310E-01
  4.685112E-01
  4.672728E-01
  4.679526E-01
  4.666649E-01
  4.673445E-01
  4.660565E-01
  4.666967E-01
  4.653479E-01
  4.659782E-01
  4.647485E-01
  4.656494E-01
  4.647814E-01
  4.660197E-01
  4.653579E-01
  4.666287E-01
  4.658608E-01
  4.669651E-01
  4.660413E-01
  4.670338E-01
  4.660422E-01
  4.670026E-01
  4.660160E-01
  4.670232E-01
  4.661147E-01
  4.672002E-01
  4.663362E-01
  4.674267E-01
  4.665629E-01
  4.676972E-01
  4.669321E-01
  4.681599E-01
  4.673703E-01
  4.683611E-01
  4.671280E-01
  4.676093E-01
  4.660279E-01
  4.665239E-01
  4.653800E-01
  4.666028E-01
  4.661956E-01
  4.678655E-01
  4.674358E-01
  4.686335E-01
  4.674861E-01
  4.680071E-01
  4.664613E-01
  4.669599E-01