# vtk DataFile Version 2.0
title
ASCII
DATASET STRUCTURED_GRID
DIMENSIONS   64   64    1
POINTS   4096  float
  0.000000E+00  0.000000E+00  0.000000E+00
  0.000000E+00  3.906250E-01  0.000000E+00
  0.000000E+00  7.812500E-01  0.000000E+00
  0.000000E+00  1.171875E+00  0.000000E+00
  0.000000E+00  1.562500E+00  0.000000E+00
  0.000000E+00  1.953125E+00  0.000000E+00
  0.000000E+00  2.343750E+00  0.000000E+00
  0.000000E+00  2.734375E+00  0.000000E+00
  0.000000E+00  3.125000E+00  0.000000E+00
  0.000000E+00  3.515625E+00  0.000000E+00
  0.000000E+00  3.906250E+00  0.000000E+00
  0.000000E+00  4.296875E+00  0.000000E+00
  0.000000E+00  4.687500E+00  0.000000E+00
  0.000000E+00  5.078125E+00  0.000000E+00
  0.000000E+00  5.468750E+00  0.000000E+00
  0.000000E+00  5.859375E+00  0.000000E+00
  0.000000E+00  6.250000E+00  0.000000E+00
  0.000000E+00  6.640625E+00  0.000000E+00
  0.000000E+00  7.031250E+00  0.000000E+00
  0.000000E+00  7.421875E+00  0.000000E+00
  0.000000E+00  7.812500E+00  0.000000E+00
  0.000000E+00  8.203125E+00  0.000000E+00
  0.000000E+00  8.593750E+00  0.000000E+00
  0.000000E+00  8.984375E+00  0.000000E+00
  0.000000E+00  9.375000E+00  0.000000E+00
  0.000000E+00  9.765625E+00  0.000000E+00
  0.000000E+00  1.015625E+01  0.000000E+00
  0.000000E+00  1.054688E+01  0.000000E+00
  0.000000E+00  1.093750E+01  0.000000E+00
  0.000000E+00  1.132812E+01  0.000000E+00
  0.000000E+00  1.171875E+01  0.000000E+00
  0.000000E+00  1.210938E+01  0.000000E+00
  0.000000E+00  1.250000E+01  0.000000E+00
  0.000000E+00  1.289062E+01  0.000000E+00
  0.000000E+00  1.328125E+01  0.000000E+00
  0.000000E+00  1.367188E+01  0.000000E+00
  0.000000E+00  1.406250E+01  0.000000E+00
  0.000000E+00  1.445312E+01  0.000000E+00
  0.000000E+00  1.484375E+01  0.000000E+00
  0.000000E+00  1.523438E+01  0.000000E+00
  0.000000E+00  1.562500E+01  0.000000E+00
  0.000000E+00  1.601562E+01  0.000000E+00
  0.000000E+00  1.640625E+01  0.000000E+00
  0.000000E+00  1.679688E+01  0.000000E+00
  0.000000E+00  1.718750E+01  0.000000E+00
  0.000000E+00  1.757812E+01  0.000000E+00
  0.000000E+00  1.796875E+01  0.000000E+00
  0.000000E+00  1.835938E+01  0.000000E+00
  0.000000E+00  1.875000E+01  0.000000E+00
  0.000000E+00  1.914062E+01  0.000000E+00
  0.000000E+00  1.953125E+01  0.000000E+00
  0.000000E+00  1.992188E+01  0.000000E+00
  0.000000E+00  2.031250E+01  0.000000E+00
  0.000000E+00  2.070312E+01  0.000000E+00
  0.000000E+00  2.109375E+01  0.000000E+00
  0.000000E+00  2.148438E+01  0.000000E+00
  0.000000E+00  2.187500E+01  0.000000E+00
  0.000000E+00  2.226562E+01  0.000000E+00
  0.000000E+00  2.265625E+01  0.000000E+00
  0.000000E+00  2.304688E+01  0.000000E+00
  0.000000E+00  2.343750E+01  0.000000E+00
  0.000000E+00  2.382812E+01  0.000000E+00
  0.000000E+00  2.421875E+01  0.000000E+00
  0.000000E+00  2.460938E+01  0.000000E+00
  3.906250E-01  0.000000E+00  0.000000E+00
  3.906250E-01  3.906250E-01  0.000000E+00
  3.906250E-01  7.812500E-01  0.000000E+00
  3.906250E-01  1.171875E+00  0.000000E+00
  3.906250E-01  1.562500E+00  0.000000E+00
  3.906250E-01  1.953125E+00  0.000000E+00
  3.906250E-01  2.343750E+00  0.000000E+00
  3.906250E-01  2.734375E+00  0.000000E+00
  3.906250E-01  3.125000E+00  0.000000E+00
  3.906250E-01  3.515625E+00  0.000000E+00
  3.906250E-01  3.906250E+00  0.000000E+00
  3.906250E-01  4.296875E+00  0.000000E+00
  3.906250E-01  4.687500E+00  0.000000E+00
  3.906250E-01  5.078125E+00  0.000000E+00
  3.906250E-01  5.468750E+00  0.000000E+00
  3.906250E-01  5.859375E+00  0.000000E+00
  3.906250E-01  6.250000E+00  0.000000E+00
  3.906250E-01  6.640625E+00  0.000000E+00
  3.906250E-01  7.031250E+00  0.000000E+00
  3.906250E-01  7.421875E+00  0.000000E+00
  3.906250E-01  7.812500E+00  0.000000E+00
  3.906250E-01  8.203125E+00  0.000000E+00
  3.906250E-01  8.593750E+00  0.000000E+00
  3.906250E-01  8.984375E+00  0.000000E+00
  3.906250E-01  9.375000E+00  0.000000E+00
  3.906250E-01  9.765625E+00  0.000000E+00
  3.906250E-01  1.015625E+01  0.000000E+00
  3.906250E-01  1.054688E+01  0.000000E+00
  3.906250E-01  1.093750E+01  0.000000E+00
  3.906250E-01  1.132812E+01  0.000000E+00
  3.906250E-01  1.171875E+01  0.000000E+00
  3.906250E-01  1.210938E+01  0.000000E+00
  3.906250E-01  1.250000E+01  0.000000E+00
  3.906250E-01  1.289062E+01  0.000000E+00
  3.906250E-01  1.328125E+01  0.000000E+00
  3.906250E-01  1.367188E+01  0.000000E+00
  3.906250E-01  1.406250E+01  0.000000E+00
  3.906250E-01  1.445312E+01  0.000000E+00
  3.906250E-01  1.484375E+01  0.000000E+00
  3.906250E-01  1.523438E+01  0.000000E+00
  3.906250E-01  1.562500E+01  0.000000E+00
  3.906250E-01  1.601562E+01  0.000000E+00
  3.906250E-01  1.640625E+01  0.000000E+00
  3.906250E-01  1.679688E+01  0.000000E+00
  3.906250E-01  1.718750E+01  0.000000E+00
  3.906250E-01  1.757812E+01  0.000000E+00
  3.906250E-01  1.796875E+01  0.000000E+00
  3.906250E-01  1.835938E+01  0.000000E+00
  3.906250E-01  1.875000E+01  0.000000E+00
  3.906250E-01  1.914062E+01  0.000000E+00
  3.906250E-01  1.953125E+01  0.000000E+00
  3.906250E-01  1.992188E+01  0.000000E+00
  3.906250E-01  2.031250E+01  0.000000E+00
  3.906250E-01  2.070312E+01  0.000000E+00
  3.906250E-01  2.109375E+01  0.000000E+00
  3.906250E-01  2.148438E+01  0.000000E+00
  3.906250E-01  2.187500E+01  0.000000E+00
  3.906250E-01  2.226562E+01  0.000000E+00
  3.906250E-01  2.265625E+01  0.000000E+00
  3.906250E-01  2.304688E+01  0.000000E+00
  3.906250E-01  2.343750E+01  0.000000E+00
  3.906250E-01  2.382812E+01  0.000000E+00
  3.906250E-01  2.421875E+01  0.000000E+00
  3.906250E-01  2.460938E+01  0.000000E+00
  7.812500E-01  0.000000E+00  0.000000E+00
  7.812500E-01  3.906250E-01  0.000000E+00
  7.812500E-01  7.812500E-01  0.000000E+00
  7.812500E-01  1.171875E+00  0.000000E+00
  7.812500E-01  1.562500E+00  0.000000E+00
  7.812500E-01  1.953125E+00  0.000000E+00
  7.812500E-01  2.343750E+00  0.000000E+00
  7.812500E-01  2.734375E+00  0.000000E+00
  7.812500E-01  3.125000E+00  0.000000E+00
  7.812500E-01  3.515625E+00  0.000000E+00
  7.812500E-01  3.906250E+00  0.000000E+00
  7.812500E-01  4.296875E+00  0.000000E+00
  7.812500E-01  4.687500E+00  0.000000E+00
  7.812500E-01  5.078125E+00  0.000000E+00
  7.812500E-01  5.468750E+00  0.000000E+00
  7.812500E-01  5.859375E+00  0.000000E+00
  7.812500E-01  6.250000E+00  0.000000E+00
  7.812500E-01  6.640625E+00  0.000000E+00
  7.812500E-01  7.031250E+00  0.000000E+00
  7.812500E-01  7.421875E+00  0.000000E+00
  7.812500E-01  7.812500E+00  0.000000E+00
  7.812500E-01  8.203125E+00  0.000000E+00
  7.812500E-01  8.593750E+00  0.000000E+00
  7.812500E-01  8.984375E+00  0.000000E+00
  7.812500E-01  9.375000E+00  0.000000E+00
  7.812500E-01  9.765625E+00  0.000000E+00
  7.812500E-01  1.015625E+01  0.000000E+00
  7.812500E-01  1.054688E+01  0.000000E+00
  7.812500E-01  1.093750E+01  0.000000E+00
  7.812500E-01  1.132812E+01  0.000000E+00
  7.812500E-01  1.171875E+01  0.000000E+00
  7.812500E-01  1.210938E+01  0.000000E+00
  7.812500E-01  1.250000E+01  0.000000E+00
  7.812500E-01  1.289062E+01  0.000000E+00
  7.812500E-01  1.328125E+01  0.000000E+00
  7.812500E-01  1.367188E+01  0.000000E+00
  7.812500E-01  1.406250E+01  0.000000E+00
  7.812500E-01  1.445312E+01  0.000000E+00
  7.812500E-01  1.484375E+01  0.000000E+00
  7.812500E-01  1.523438E+01  0.000000E+00
  7.812500E-01  1.562500E+01  0.000000E+00
  7.812500E-01  1.601562E+01  0.000000E+00
  7.812500E-01  1.640625E+01  0.000000E+00
  7.812500E-01  1.679688E+01  0.000000E+00
  7.812500E-01  1.718750E+01  0.000000E+00
  7.812500E-01  1.757812E+01  0.000000E+00
  7.812500E-01  1.796875E+01  0.000000E+00
  7.812500E-01  1.835938E+01  0.000000E+00
  7.812500E-01  1.875000E+01  0.000000E+00
  7.812500E-01  1.914062E+01  0.000000E+00
  7.812500E-01  1.953125E+01  0.000000E+00
  7.812500E-01  1.992188E+01  0.000000E+00
  7.812500E-01  2.031250E+01  0.000000E+00
  7.812500E-01  2.070312E+01  0.000000E+00
  7.812500E-01  2.109375E+01  0.000000E+00
  7.812500E-01  2.148438E+01  0.000000E+00
  7.812500E-01  2.187500E+01  0.000000E+00
  7.812500E-01  2.226562E+01  0.000000E+00
  7.812500E-01  2.265625E+01  0.000000E+00
  7.812500E-01  2.304688E+01  0.000000E+00
  7.812500E-01  2.343750E+01  0.000000E+00
  7.812500E-01  2.382812E+01  0.000000E+00
  7.812500E-01  2.421875E+01  0.000000E+00
  7.812500E-01  2.460938E+01  0.000000E+00
  1.171875E+00  0.000000E+00  0.000000E+00
  1.171875E+00  3.906250E-01  0.000000E+00
  1.171875E+00  7.812500E-01  0.000000E+00
  1.171875E+00  1.171875E+00  0.000000E+00
  1.171875E+00  1.562500E+00  0.000000E+00
  1.171875E+00  1.953125E+00  0.000000E+00
  1.171875E+00  2.343750E+00  0.000000E+00
  1.171875E+00  2.734375E+00  0.000000E+00
  1.171875E+00  3.125000E+00  0.000000E+00
  1.171875E+00  3.515625E+00  0.000000E+00
  1.171875E+00  3.906250E+00  0.000000E+00
  1.171875E+00  4.296875E+00  0.000000E+00
  1.171875E+00  4.687500E+00  0.000000E+00
  1.171875E+00  5.078125E+00  0.000000E+00
  1.171875E+00  5.468750E+00  0.000000E+00
  1.171875E+00  5.859375E+00  0.000000E+00
  1.171875E+00  6.250000E+00  0.000000E+00
  1.171875E+00  6.640625E+00  0.000000E+00
  1.171875E+00  7.031250E+00  0.000000E+00
  1.171875E+00  7.421875E+00  0.000000E+00
  1.171875E+00  7.812500E+00  0.000000E+00
  1.171875E+00  8.203125E+00  0.000000E+00
  1.171875E+00  8.593750E+00  0.000000E+00
  1.171875E+00  8.984375E+00  0.000000E+00
  1.171875E+00  9.375000E+00  0.000000E+00
  1.171875E+00  9.765625E+00  0.000000E+00
  1.171875E+00  1.015625E+01  0.000000E+00
  1.171875E+00  1.054688E+01  0.000000E+00
  1.171875E+00  1.093750E+01  0.000000E+00
  1.171875E+00  1.132812E+01  0.000000E+00
  1.171875E+00  1.171875E+01  0.000000E+00
  1.171875E+00  1.210938E+01  0.000000E+00
  1.171875E+00  1.250000E+01  0.000000E+00
  1.171875E+00  1.289062E+01  0.000000E+00
  1.171875E+00  1.328125E+01  0.000000E+00
  1.171875E+00  1.367188E+01  0.000000E+00
  1.171875E+00  1.406250E+01  0.000000E+00
  1.171875E+00  1.445312E+01  0.000000E+00
[...]
POINT_DATA   4096
SCALARS CON  float  1
LOOKUP_TABLE default
  4.701286E-01
  4.693913E-01
  4.733747E-01
  4.715493E-01
  4.725221E-01
  4.682273E-01
  4.695497E-01
  4.679819E-01
  4.716419E-01
  4.698584E-01
  4.712970E-01
  4.675964E-01
  4.689185E-01
  4.664580E-01
  4.691882E-01
  4.678323E-01
  4.714499E-01
  4.704094E-01
  4.730556E-01
  4.698336E-01
  4.703258E-01
  4.662209E-01
  4.671518E-01
  4.638808E-01
  4.653052E-01
  4.623733E-01
  4.647880E-01
  4.639193E-01
  4.686053E-01
  4.683448E-01
  4.709085E-01
  4.672009E-01
  4.680138E-01
  4.658016E-01
  4.696020E-01
  4.686494E-01
  4.707326E-01
  4.668458E-01
  4.673288E-01
  4.639611E-01
  4.658792E-01
  4.633887E-01
  4.653201E-01
  4.626856E-01
  4.649670E-01
  4.632913E-01
  4.671114E-01
  4.674252E-01
  4.726972E-01
  4.721383E-01
  4.735455E-01
  4.682008E-01
  4.673749E-01
  4.640858E-01
  4.682278E-01
  4.697391E-01
  4.758342E-01
  4.754451E-01
  4.769799E-01
  4.722139E-01
  4.719846E-01
  4.681271E-01
  4.696845E-01
  4.672275E-01
  4.710632E-01
  4.711721E-01
  4.754615E-01
  4.747991E-01
  4.748086E-01
  4.693481E-01
  4.680988E-01
  4.657429E-01
  4.687854E-01
  4.683534E-01
  4.705555E-01
  4.687045E-01
  4.704153E-01
  4.684250E-01
  4.695281E-01
  4.672143E-01
  4.695541E-01
  4.695478E-01
  4.729803E-01
  4.712856E-01
  4.712875E-01
  4.670623E-01
  4.671077E-01
  4.648811E-01
  4.669340E-01
  4.654027E-01
  4.671860E-01
  4.657455E-01
  4.686251E-01
  4.683689E-01
  4.710203E-01
  4.688892E-01
  4.695172E-01
  4.668041E-01
  4.682214E-01
  4.662855E-01
  4.676458E-01
  4.654113E-01
  4.670633E-01
  4.653799E-01
  4.667420E-01
  4.637153E-01
  4.639376E-01
  4.612820E-01
  4.632121E-01
  4.624502E-01
  4.660465E-01
  4.671771E-01
  4.724029E-01
  4.728591E-01
  4.739678E-01
  4.691390E-01
  4.680783E-01
  4.662487E-01
  4.710762E-01
  4.736153E-01
  4.784109E-01
  4.768587E-01
  4.763199E-01
  4.714560E-01
  4.711189E-01
  4.686890E-01
  4.704475E-01
  4.687098E-01
  4.660048E-01
  4.697829E-01
  4.746213E-01
  4.755890E-01
  4.744087E-01
  4.700294E-01
  4.677188E-01
  4.664081E-01
  4.681770E-01
  4.689484E-01
  4.704021E-01
  4.699619E-01
  4.705188E-01
  4.695391E-01
  4.696851E-01
  4.687722E-01
  4.698773E-01
  4.703040E-01
  4.718607E-01
  4.711450E-01
  4.706313E-01
  4.682794E-01
  4.673769E-01
  4.656873E-01
  4.657591E-01
  4.647564E-01
  4.651673E-01
  4.645441E-01
  4.656124E-01
  4.654901E-01
  4.662238E-01
  4.651237E-01
  4.655135E-01
  4.656198E-01
  4.678715E-01
  4.684705E-01
  4.689863E-01
  4.670066E-01
  4.661717E-01
  4.645523E-01
  4.644428E-01
  4.626296E-01
  4.617653E-01
  4.600787E-01
  4.609679E-01
  4.619966E-01
  4.654568E-01
  4.682844E-01
  4.722127E-01
  4.732602E-01
  4.730324E-01
  4.695724E-01
  4.676285E-01
  4.666284E-01
  4.696073E-01
  4.727461E-01
  4.766354E-01
  4.769073E-01
  4.755208E-01
  4.707698E-01
  4.670464E-01
  4.632308E-01
  4.625270E-01
  4.625400E-01
  4.664259E-01
  4.710609E-01
  4.741788E-01
  4.762490E-01
  4.730903E-01
  4.690799E-01
  4.642919E-01
  4.637453E-01
  4.642847E-01
  4.673115E-01
  4.686769E-01
  4.709551E-01
  4.710078E-01
  4.714461E-01
  4.694358E-01
  4.689291E-01
  4.681823E-01
  4.703160E-01
  4.712568E-01
  4.725817E-01
  4.709514E-01
  4.700532E-01
  4.679822E-01
  4.681761E-01
  4.674295E-01
  4.680546E-01
  4.666692E-01
  4.663983E-01
  4.650136E-01
  4.660713E-01
  4.664523E-01
  4.682242E-01
  4.676889E-01
  4.678119E-01
  4.662023E-01
  4.662720E-01
  4.652811E-01
  4.663188E-01
  4.663727E-01
  4.677239E-01
  4.664685E-01
  4.654077E-01
  4.627914E-01
  4.630533E-01
  4.635056E-01
  4.660652E-01
  4.668861E-01
  4.690189E-01
  4.697944E-01
  4.715044E-01
  4.701552E-01
  4.688870E-01
  4.665770E-01
  4.679932E-01
  4.702310E-01
  4.744850E-01
  4.757175E-01
  4.758142E-01
  4.722237E-01
  4.692926E-01
  4.655244E-01
  4.645366E-01
  4.633158E-01
  4.647981E-01
  4.633053E-01
  4.697870E-01
  4.714709E-01
  4.742402E-01
  4.698126E-01
  4.678993E-01
  4.629110E-01
  4.640947E-01
  4.632491E-01
  4.673497E-01
  4.674895E-01
  4.709653E-01
  4.694457E-01
  4.709762E-01
  4.681858E-01
  4.698139E-01
  4.682880E-01
  4.712798E-01
  4.701461E-01
  4.723724E-01
  4.699624E-01
  4.710240E-01
  4.676670E-01
  4.680161E-01
  4.645280E-01
  4.655598E-01
  4.631102E-01
  4.648289E-01
  4.627046E-01
  4.650012E-01
  4.638477E-01
  4.667815E-01
  4.653821E-01
  4.676897E-01
  4.660962E-01
  4.685435E-01
  4.666828E-01
  4.683612E-01
  4.659195E-01
  4.674454E-01
  4.646406E-01
  4.653651E-01
  4.624403E-01
  4.649200E-01
  4.649271E-01
  4.691980E-01
  4.684489E-01
  4.704780E-01
  4.680535E-01
  4.695678E-01
  4.668014E-01
  4.676031E-01
  4.646615E-01
  4.668338E-01
  4.663874E-01
  4.706569E-01
  4.706370E-01
  4.733269E-01
  4.702461E-01
  4.695561E-01
  4.641489E-01
  4.631125E-01
  4.595370E-01
  4.621962E-01
  4.665083E-01
  4.709790E-01
  4.705006E-01
  4.730248E-01
  4.681904E-01
  4.667233E-01
  4.610241E-01
  4.622021E-01
  4.607145E-01
  4.653970E-01
  4.656083E-01
  4.701270E-01
  4.686263E-01
  4.705761E-01
  4.669879E-01
  4.687582E-01
  4.671335E-01
  4.715033E-01
  4.709982E-01
  4.741271E-01
  4.709863E-01
  4.717186E-01
  4.672925E-01
  4.678301E-01
  4.641012E-01
  4.659890E-01
  4.636012E-01
  4.661266E-01
  4.639853E-01
  4.674941E-01
  4.671935E-01
  4.716188E-01
  4.695575E-01
  4.703442E-01
  4.656513E-01
  4.667372E-01
  4.645302E-01
  4.682162E-01
  4.672481E-01
  4.702774E-01
  4.670035E-01
  4.676125E-01
  4.642529E-01
  4.680448E-01
  4.686903E-01
  4.734233E-01
  4.708053E-01
  4.710153E-01
  4.663345E-01
  4.675580E-01
  4.646452E-01
  4.665518E-01
  4.638410E-01
  4.668693E-01
  4.659988E-01
  4.699671E-01
  4.682147E-01
  4.702926E-01
  4.671322E-01
  4.689553E-01
  4.662179E-01
  4.683224E-01
  4.655266E-01
  4.679148E-01
  4.646847E-01
  4.686307E-01
  4.681381E-01
  4.704628E-01
  4.670969E-01
  4.672582E-01
  4.635655E-01
  4.649478E-01
  4.631632E-01
  4.664740E-01
  4.659949E-01
  4.692543E-01
  4.672917E-01
  4.687942E-01
  4.663791E-01
  4.692335E-01
  4.689173E-01
  4.729798E-01
  4.721136E-01
  4.742826E-01
  4.712179E-01
  4.714761E-01
  4.667179E-01
  4.656749E-01
  4.609950E-01
  4.621555E-01
  4.608733E-01
  4.645579E-01
  4.639524E-01
  4.674592E-01
  4.669783E-01
  4.704628E-01
  4.687518E-01
  4.702758E-01
  4.676602E-01
  4.700106E-01
  4.685772E-01
  4.709146E-01
  4.683089E-01
  4.692999E-01
  4.657435E-01
  4.664873E-01
  4.641225E-01
  4.678382E-01
  4.687244E-01
  4.732539E-01
  4.713537E-01
  4.714974E-01
  4.669292E-01
  4.674569E-01
  4.647848E-01
  4.665565E-01
  4.639858E-01
  4.656874E-01
  4.636184E-01
  4.661861E-01
  4.648401E-01
  4.677999E-01
  4.664999E-01
  4.690013E-01
  4.665850E-01
  4.676169E-01
  4.642848E-01
  4.659026E-01
  4.668199E-01
  4.681087E-01
  4.675917E-01
  4.697530E-01
  4.682812E-01
  4.684934E-01
  4.656699E-01
  4.660307E-01
  4.646249E-01
  4.668451E-01
  4.668467E-01
  4.693010E-01
  4.681861E-01
  4.689358E-01
  4.669587E-01
  4.687199E-01
  4.692515E-01
  4.732740E-01
  4.739554E-01
  4.755555E-01
  4.725742E-01
  4.711847E-01
  4.668738E-01
  4.657149E-01
  4.629069E-01
  4.642726E-01
  4.641301E-01
  4.669940E-01
  4.669540E-01
  4.698432E-01
  4.706586E-01
  4.739787E-01
  4.729036E-01
  4.725256E-01
  4.689228E-01
  4.692410E-01
  4.684116E-01
  4.708743E-01
  4.701392E-01
  4.710583E-01
  4.682573E-01
  4.678975E-01
  4.659237E-01
  4.685973E-01
  4.697231E-01
  4.727009E-01
  4.708188E-01
  4.701343E-01
  4.669892E-01
  4.677261E-01
  4.663977E-01
  4.675265E-01
  4.657433E-01
  4.671548E-01
  4.665128E-01
  4.684433E-01
  4.667878E-01
  4.672285E-01
  4.654385E-01
  4.675381E-01
  4.677145E-01
  4.702269E-01
  4.688420E-01
  4.691677E-01
  4.629648E-01
  4.646566E-01
  4.655007E-01
  4.681055E-01
  4.686437E-01
  4.702574E-01
  4.696421E-01
  4.702208E-01
  4.690403E-01
  4.698305E-01
  4.692600E-01
  4.700866E-01
  4.686189E-01
  4.685864E-01
  4.676069E-01
  4.695304E-01
  4.707153E-01
  4.735184E-01
  4.736805E-01
  4.740786E-01
  4.716151E-01
  4.701150E-01
  4.667105E-01
  4.651566E-01
  4.628715E-01
  4.638424E-01
  4.645808E-01
  4.672632E-01
  4.675839E-01
  4.689355E-01
  4.686952E-01
  4.703234E-01
  4.700546E-01
  4.710956E-01
  4.706904E-01
  4.724055E-01
  4.722091E-01
  4.724457E-01
  4.697638E-01
  4.683815E-01
  4.659203E-01
  4.660442E-01
  4.653994E-01
  4.671004E-01
  4.674150E-01
  4.690184E-01
  4.682315E-01
  4.686812E-01
  4.677455E-01
  4.689533E-01
  4.684575E-01
  4.689669E-01
  4.673269E-01
  4.676118E-01
  4.669821E-01
  4.683958E-01
  4.678321E-01
  4.683267E-01
  4.669196E-01
  4.673231E-01
  4.661490E-01
  4.662949E-01
  4.643351E-01
  4.640765E-01
  4.642564E-01
  4.645661E-01
  4.654051E-01
  4.681534E-01
  4.694194E-01
  4.706916E-01
  4.699734E-01
  4.700297E-01
  4.692310E-01
  4.699763E-01
  4.699393E-01
  4.707896E-01
  4.698836E-01
  4.694053E-01
  4.678537E-01
  4.683075E-01
  4.690631E-01
  4.717877E-01
  4.730055E-01
  4.736479E-01
  4.713649E-01
  4.693029E-01
  4.666036E-01
  4.662275E-01
  4.661516E-01
  4.682029E-01
  4.694158E-01
  4.709632E-01
  4.703188E-01
  4.703862E-01
  4.700007E-01
  4.713073E-01
  4.711473E-01
  4.711177E-01
  4.696889E-01
  4.699530E-01
  4.697291E-01
  4.703448E-01
  4.690619E-01
  4.682897E-01
  4.665459E-01
  4.665693E-01
  4.663701E-01
  4.677454E-01
  4.677477E-01
  4.679898E-01
  4.666559E-01
  4.669643E-01
  4.673958E-01
  4.695123E-01
  4.698216E-01
  4.699087E-01
  4.685182E-01
  4.692442E-01
  4.701904E-01
  4.721943E-01
  4.715297E-01
  4.702177E-01
  4.674886E-01
  4.670040E-01
  4.667995E-01
  4.679485E-01
  4.670913E-01
  4.662431E-01
  4.614015E-01
  4.628770E-01
  4.641833E-01
  4.670690E-01
  4.685241E-01
  4.705943E-01
  4.706827E-01
  4.712457E-01
  4.702783E-01
  4.707078E-01
  4.701817E-01
  4.705929E-01
  4.691106E-01
  4.684703E-01
  4.671105E-01
  4.680331E-01
  4.687217E-01
  4.709288E-01
  4.714084E-01
  4.719417E-01
  4.700262E-01
  4.685764E-01
  4.659870E-01
  4.654331E-01
  4.650350E-01
  4.672342E-01
  4.688369E-01
  4.708912E-01
  4.700553E-01
  4.690823E-01
  4.668140E-01
  4.666490E-01
  4.663181E-01
  4.679509E-01
  4.688634E-01
  4.709512E-01
  4.708445E-01
  4.701921E-01
  4.669275E-01
  4.648842E-01
  4.630628E-01
  4.641927E-01
  4.649993E-01
  4.666887E-01
  4.662635E-01
  4.664909E-01
  4.658332E-01
  4.673266E-01
  4.683843E-01
  4.704810E-01
  4.702133E-01
  4.698278E-01
  4.678417E-01
  4.679484E-01
  4.682547E-01
  4.704817E-01
  4.709819E-01
  4.714559E-01
  4.697323E-01
  4.688687E-01
  4.667648E-01
  4.657209E-01
  4.633259E-01
  4.624624E-01
  4.643629E-01
  4.648488E-01
  4.651660E-01
  4.677718E-01
  4.684943E-01
  4.697841E-01
  4.685810E-01
  4.685906E-01
  4.673472E-01
  4.683294E-01
  4.682492E-01
  4.695974E-01
  4.685995E-01
  4.682927E-01
  4.662385E-01
  4.665934E-01
  4.668741E-01
  4.698934E-01
  4.713084E-01
  4.728477E-01
  4.708306E-01
  4.691077E-01
  4.660298E-01
  4.659433E-01
  4.660921E-01
  4.690737E-01
  4.706085E-01
  4.725694E-01
  4.713127E-01
  4.706195E-01
  4.685702E-01
  4.688341E-01
  4.678370E-01
  4.681433E-01
  4.667895E-01
  4.674164E-01
  4.668933E-01
  4.677161E-01
  4.662864E-01
  4.659800E-01
  4.644364E-01
  4.653925E-01
  4.656875E-01
  4.677359E-01
  4.675761E-01
  4.681245E-01
  4.669408E-01
  4.680491E-01
  4.684219E-01
  4.702132E-01
  4.692052E-01
  4.685376E-01
  4.664018E-01
  4.673399E-01
  4.683600E-01
  4.712823E-01
  4.714990E-01
  4.717929E-01
  4.699192E-01
  4.699966E-01
  4.690244E-01
  4.694517E-01
  4.675522E-01
  4.666078E-01
  4.626441E-01
  4.645631E-01
  4.648767E-01
  4.673480E-01
  4.676711E-01
  4.696275E-01
  4.687532E-01
  4.691276E-01
  4.672264E-01
  4.678598E-01
  4.670241E-01
  4.681758E-01
  4.666605E-01
  4.668448E-01
  4.654753E-01
  4.671804E-01
  4.676694E-01
  4.704362E-01
  4.707949E-01
  4.723578E-01
  4.706801E-01
  4.698577E-01
  4.663521E-01
  4.652626E-01
  4.634838E-01
  4.654919E-01
  4.665884E-01
  4.695292E-01
  4.690383E-01
  4.690699E-01
  4.664326E-01
  4.663061E-01
  4.650791E-01
  4.667215E-01
  4.667709E-01
  4.688174E-01
  4.681055E-01
  4.682763E-01
  4.655076E-01
  4.648680E-01
  4.632001E-01
  4.647648E-01
  4.648419E-01
  4.667794E-01
  4.662497E-01
  4.676554E-01
  4.672570E-01
  4.691087E-01
  4.686477E-01
  4.694390E-01
  4.672610E-01
  4.666967E-01
  4.644852E-01
  4.653584E-01
  4.652992E-01
  4.679901E-01
  4.687395E-01
  4.711170E-01
  4.706390E-01
  4.711402E-01
  4.684922E-01
  4.671895E-01
  4.639577E-01
  4.637090E-01
  4.664190E-01
  4.671070E-01
  4.665680E-01
  4.681925E-01
  4.680954E-01
  4.690734E-01
  4.674812E-01
  4.671121E-01
  4.652539E-01
  4.658327E-01
  4.653953E-01
  4.668235E-01
  4.661465E-01
  4.667191E-01
  4.656240E-01
  4.668778E-01
  4.672931E-01
  4.700232E-01
  4.710363E-01
  4.729662E-01
  4.717838E-01
  4.708926E-01
  4.676033E-01
  4.663854E-01
  4.646024E-01
  4.658377E-01
  4.662421E-01
  4.684406E-01
  4.683568E-01
  4.693447E-01
  4.684388E-01
  4.693335E-01
  4.683165E-01
  4.684022E-01
  4.663653E-01
  4.663078E-01
  4.652778E-01
  4.665568E-01
  4.662855E-01
  4.675213E-01
  4.667240E-01
  4.674324E-01
  4.665366E-01
  4.676716E-01
  4.672961E-01
  4.684673E-01
  4.675707E-01
  4.681183E-01
  4.668026E-01
  4.669395E-01
  4.650832E-01
  4.650859E-01
  4.642612E-01
  4.663158E-01
  4.672631E-01
  4.695344E-01
  4.691719E-01
  4.698164E-01
  4.685989E-01
  4.692047E-01
  4.681212E-01
  4.686222E-01
  4.673100E-01
  4.676851E-01
  4.660841E-01
  4.671694E-01
  4.669187E-01
  4.672667E-01
  4.674687E-01
  4.685777E-01
  4.685993E-01
  4.684129E-01
  4.670768E-01
  4.665239E-01
  4.657282E-01
  4.657167E-01
  4.650842E-01
  4.655278E-01
  4.662358E-01
  4.682310E-01
  4.693777E-01
  4.704458E-01
  4.704779E-01
  4.712416E-01
  4.712399E-01
  4.709323E-01
  4.685664E-01
  4.659309E-01
  4.629556E-01
  4.620225E-01
  4.621807E-01
  4.640644E-01
  4.652093E-01
  4.660640E-01
  4.655063E-01
  4.656444E-01
  4.658031E-01
  4.671499E-01
  4.678427E-01
  4.686218E-01
  4.679773E-01
  4.673928E-01
  4.661715E-01
  4.661397E-01
  4.660492E-01
  4.667056E-01
  4.664217E-01
  4.665787E-01
  4.662887E-01
  4.669240E-01
  4.668201E-01
  4.668092E-01
  4.655836E-01
  4.648577E-01
  4.639559E-01
  4.645581E-01
  4.652963E-01
  4.668609E-01
  4.673284E-01
  4.678251E-01
  4.674299E-01
  4.677083E-01
  4.671573E-01
  4.666218E-01
  4.648910E-01
  4.640346E-01
  4.636365E-01
  4.650302E-01
  4.716593E-01
  4.703802E-01
  4.691558E-01
  4.676451E-01
  4.676658E-01
  4.672627E-01
  4.674175E-01
  4.665656E-01
  4.664074E-01
  4.656095E-01
  4.656687E-01
  4.650803E-01
  4.654592E-01
  4.655740E-01
  4.670441E-01
  4.680917E-01
  4.696639E-01
  4.700233E-01
  4.709130E-01
  4.710753E-01
  4.716824E-01
  4.706355E-01
  4.692481E-01
  4.665319E-01
  4.647747E-01
  4.631383E-01
  4.633952E-01
  4.638208E-01
  4.652552E-01
  4.656937E-01
  4.667170E-01
  4.671962E-01
  4.685203E-01
  4.685812E-01
  4.684668E-01
  4.670009E-01
  4.664205E-01
  4.658238E-01
  4.667812E-01
  4.673390E-01
  4.683004E-01
  4.678737E-01
  4.679558E-01
  4.676507E-01
  4.683849E-01
  4.678977E-01
  4.671189E-01
  4.649419E-01
  4.638374E-01
  4.629966E-01
  4.639722E-01
  4.650766E-01
  4.675419E-01
  4.692794E-01
  4.707935E-01
  4.698748E-01
  4.682494E-01
  4.654530E-01
  4.639938E-01
  4.629156E-01
  4.639087E-01
  4.654689E-01
  4.685585E-01
  4.705087E-01
  4.720183E-01
  4.709471E-01
  4.695578E-01
  4.668928E-01
  4.666939E-01
  4.663616E-01
  4.676891E-01
  4.674001E-01
  4.678912E-01
  4.666969E-01
  4.664654E-01
  4.647245E-01
  4.645805E-01
  4.643113E-01
  4.668326E-01
  4.686812E-01
  4.709177E-01
  4.702742E-01
  4.701155E-01
  4.690937E-01
  4.700127E-01
  4.693365E-01
  4.686634E-01
  4.654522E-01
  4.633144E-01
  4.609236E-01
  4.615192E-01
  4.621163E-01
  4.640664E-01
  4.638018E-01
  4.641644E-01
  4.638056E-01
  4.661068E-01
  4.679380E-01
  4.704949E-01
  4.701787E-01
  4.695862E-01
  4.670040E-01
  4.660740E-01
  4.648140E-01
  4.656898E-01
  4.656434E-01
  4.669572E-01
  4.670193E-01
  4.682259E-01
  4.674671E-01
  4.669430E-01
  4.644656E-01
  4.636515E-01
  4.627987E-01
  4.646239E-01
  4.660198E-01
  4.687106E-01
  4.692077E-01
  4.695265E-01
  4.673064E-01
  4.660164E-01
  4.638564E-01
  4.635098E-01
  4.622065E-01
  4.628108E-01
  4.634662E-01
  4.669254E-01
  4.695043E-01
  4.758654E-01
  4.732168E-01
  4.709690E-01
  4.676950E-01
  4.668638E-01
  4.652992E-01
  4.655844E-01
  4.647537E-01
  4.656564E-01
  4.650873E-01
  4.656348E-01
  4.643898E-01
  4.646837E-01
  4.641768E-01
  4.660136E-01
  4.668552E-01
  4.687902E-01
  4.684309E-01
  4.689644E-01
  4.680723E-01
  4.688457E-01
  4.680191E-01
  4.681165E-01
  4.662375E-01
  4.657013E-01
  4.641718E-01
  4.649566E-01
  4.649770E-01
  4.664578E-01
  4.660433E-01
  4.670754E-01
  4.674158E-01
  4.698927E-01
  4.704444E-01
  4.709260E-01
  4.685633E-01
  4.673956E-01
  4.655718E-01
  4.662282E-01
  4.659151E-01
  4.669355E-01
  4.663949E-01
  4.677747E-01
  4.683580E-01
  4.701603E-01
  4.689261E-01
  4.672700E-01
  4.636098E-01
  4.626738E-01
  4.623008E-01
  4.647985E-01
  4.662589E-01
  4.689587E-01
  4.695570E-01
  4.704462E-01
  4.684624E-01
  4.670217E-01
  4.642420E-01
  4.638645E-01
  4.633404E-01
  4.657422E-01
  4.681104E-01
  4.725842E-01
  4.746696E-01
  4.725421E-01
  4.709132E-01
  4.698915E-01
  4.668099E-01
  4.664231E-01
  4.650112E-01
  4.659441E-01
  4.649738E-01
  4.658332E-01
  4.647242E-01
  4.653569E-01
  4.637792E-01
  4.641143E-01
  4.632421E-01
  4.653694E-01
  4.660424E-01
  4.678538E-01
  4.663627E-01
  4.660946E-01
  4.645357E-01
  4.661118E-01
  4.663360E-01
  4.678388E-01
  4.661997E-01
  4.657564E-01
  4.638351E-01
  4.650654E-01
  4.653089E-01
  4.672133E-01
  4.661481E-01
  4.665098E-01
  4.658417E-01
  4.685275E-01
  4.697519E-01
  4.718036E-01
  4.701850E-01
  4.692538E-01
  4.661918E-01
  4.655756E-01
  4.638650E-01
  4.648853E-01
  4.647116E-01
  4.669904E-01
  4.674516E-01
  4.691541E-01
  4.675704E-01
  4.665732E-01
  4.633309E-01
  4.629514E-01
  4.622279E-01
  4.646552E-01
  4.655647E-01
  4.679656E-01
  4.675012E-01
  4.679808E-01
  4.662107E-01
  4.669110E-01
  4.665589E-01
  4.683593E-01
  4.676819E-01
  4.684045E-01
  4.676096E-01
  4.697875E-01
  4.705976E-01
  4.727542E-01
  4.699048E-01
  4.700143E-01
  4.670550E-01
  4.675209E-01
  4.647393E-01
  4.651770E-01
  4.626125E-01
  4.637564E-01
  4.621774E-01
  4.642268E-01
  4.632473E-01
  4.655202E-01
  4.644273E-01
  4.663457E-01
  4.647057E-01
  4.658948E-01
  4.635437E-01
  4.645480E-01
  4.629972E-01
  4.656243E-01
  4.656268E-01
  4.687326E-01
  4.678570E-01
  4.694722E-01
  4.676927E-01
  4.695557E-01
  4.685037E-01
  4.704221E-01
  4.686424E-01
  4.702723E-01
  4.694646E-01
  4.721829E-01
  4.705918E-01
  4.704856E-01
  4.662682E-01
  4.659755E-01
  4.639306E-01
  4.661872E-01
  4.653677E-01
  4.674812E-01
  4.663298E-01
  4.688728E-01
  4.684893E-01
  4.706487E-01
  4.679124E-01
  4.669648E-01
  4.627455E-01
  4.631140E-01
  4.618659E-01
  4.647722E-01
  4.646233E-01
  4.676177E-01
  4.672192E-01
  4.697647E-01
  4.687495E-01
  4.708981E-01
  4.699866E-01
  4.723484E-01
  4.711510E-01
  4.728194E-01
  4.712414E-01
  4.731133E-01
  4.716378E-01
  4.677026E-01
  4.664600E-01
  4.685976E-01
  4.663316E-01
  4.678459E-01
  4.655992E-01
  4.671790E-01
  4.645215E-01
  4.655039E-01
  4.628435E-01
  4.647140E-01
  4.633033E-01
  4.661157E-01
  4.651549E-01
  4.679347E-01
  4.661814E-01
  4.672229E-01
  4.634958E-01
  4.638292E-01
  4.616633E-01
  4.651318E-01
  4.655486E-01
  4.692084E-01
  4.675189E-01
  4.687478E-01
  4.663457E-01
  4.688121E-01
  4.678847E-01
  4.702237E-01
  4.676092E-01
  4.686103E-01
  4.665504E-01
  4.692879E-01
  4.680510E-01
  4.697575E-01
  4.667551E-01
  4.674917E-01
  4.645913E-01
  4.658862E-01
  4.637466E-01
  4.662447E-01
  4.656238E-01
  4.691443E-01
  4.682417E-01
  4.701466E-01
  4.671131E-01
  4.674788E-01
  4.641809E-01
  4.654357E-01