# vtk DataFile Version 2.0
title
ASCII
DATASET STRUCTURED_GRID
DIMENSIONS   64   64    1
POINTS   4096  float
  0.000000E+00  0.000000E+00  0.000000E+00
  0.000000E+00  3.906250E-01  0.000000E+00
  0.000000E+00  7.812500E-01  0.000000E+00
  0.000000E+00  1.171875E+00  0.000000E+00
  0.000000E+00  1.562500E+00  0.000000E+00
  0.000000E+00  1.953125E+00  0.000000E+00
  0.000000E+00  2.343750E+00  0.000000E+00
  0.000000E+00  2.734375E+00  0.000000E+00
  0.000000E+00  3.125000E+00  0.000000E+00
  0.000000E+00  3.515625E+00  0.000000E+00
  0.000000E+00  3.906250E+00  0.000000E+00
  0.000000E+00  4.296875E+00  0.000000E+00
  0.000000E+00  4.687500E+00  0.000000E+00
  0.000000E+00  5.078125E+00  0.000000E+00
  0.000000E+00  5.468750E+00  0.000000E+00
  0.000000E+00  5.859375E+00  0.000000E+00
  0.000000E+00  6.250000E+00  0.000000E+00
  0.000000E+00  6.640625E+00  0.000000E+00
  0.000000E+00  7.031250E+00  0.000000E+00
  0.000000E+00  7.421875E+00  0.000000E+00
  0.000000E+00  7.812500E+00  0.000000E+00
  0.000000E+00  8.203125E+00  0.000000E+00
  0.000000E+00  8.593750E+00  0.000000E+00
  0.000000E+00  8.984375E+00  0.000000E+00
  0.000000E+00  9.375000E+00  0.000000E+00
  0.000000E+00  9.765625E+00  0.000000E+00
  0.000000E+00  1.015625E+01  0.000000E+00
  0.000000E+00  1.054688E+01  0.000000E+00
  0.000000E+00  1.093750E+01  0.000000E+00
  0.000000E+00  1.132812E+01  0.000000E+00
  0.000000E+00  1.171875E+01  0.000000E+00
  0.000000E+00  1.210938E+01  0.000000E+00
  0.000000E+00  1.250000E+01  0.000000E+00
  0.000000E+00  1.289062E+01  0.000000E+00
  0.000000E+00  1.328125E+01  0.000000E+00
  0.000000E+00  1.367188E+01  0.000000E+00
  0.000000E+00  1.406250E+01  0.000000E+00
  0.000000E+00  1.445312E+01  0.000000E+00
  0.000000E+00  1.484375E+01  0.000000E+00
  0.000000E+00  1.523438E+01  0.000000E+00
  0.000000E+00  1.562500E+01  0.000000E+00
  0.000000E+00  1.601562E+01  0.000000E+00
  0.000000E+00  1.640625E+01  0.000000E+00
  0.000000E+00  1.679688E+01  0.000000E+00
  0.000000E+00  1.718750E+01  0.000000E+00
  0.000000E+00  1.757812E+01  0.000000E+00
  0.000000E+00  1.796875E+01  0.000000E+00
  0.000000E+00  1.835938E+01  0.000000E+00
  0.000000E+00  1.875000E+01  0.000000E+00
  0.000000E+00  1.914062E+01  0.000000E+00
  0.000000E+00  1.953125E+01  0.000000E+00
  0.000000E+00  1.992188E+01  0.000000E+00
  0.000000E+00  2.031250E+01  0.000000E+00
  0.000000E+00  2.070312E+01  0.000000E+00
  0.000000E+00  2.109375E+01  0.000000E+00
  0.000000E+00  2.148438E+01  0.000000E+00
  0.000000E+00  2.187500E+01  0.000000E+00
  0.000000E+00  2.226562E+01  0.000000E+00
  0.000000E+00  2.265625E+01  0.000000E+00
  0.000000E+00  2.304688E+01  0.000000E+00
  0.000000E+00  2.343750E+01  0.000000E+00
  0.000000E+00  2.382812E+01  0.000000E+00
  0.000000E+00  2.421875E+01  0.000000E+00
  0.000000E+00  2.460938E+01  0.000000E+00
  3.906250E-01  0.000000E+00  0.000000E+00
  3.906250E-01  3.906250E-01  0.000000E+00
  3.906250E-01  7.812500E-01  0.000000E+00
  3.906250E-01  1.171875E+00  0.000000E+00
  3.906250E-01  1.562500E+00  0.000000E+00
  3.906250E-01  1.953125E+00  0.000000E+00
  3.906250E-01  2.343750E+00  0.000000E+00
  3.906250E-01  2.734375E+00  0.000000E+00
  3.906250E-01  3.125000E+00  0.000000E+00
  3.906250E-01  3.515625E+00  0.000000E+00
  3.906250E-01  3.906250E+00  0.000000E+00
  3.906250E-01  4.296875E+00  0.000000E+00
  3.906250E-01  4.687500E+00  0.000000E+00
  3.906250E-01  5.078125E+00  0.000000E+00
  3.906250E-01  5.468750E+00  0.000000E+00
  3.906250E-01  5.859375E+00  0.000000E+00
  3.906250E-01  6.250000E+00  0.000000E+00
  3.906250E-01  6.640625E+00  0.000000E+00
  3.906250E-01  7.031250E+00  0.000000E+00
  3.906250E-01  7.421875E+00  0.000000E+00
  3.906250E-01  7.812500E+00  0.000000E+00
  3.906250E-01  8.203125E+00  0.000000E+00
  3.906250E-01  8.593750E+00  0.000000E+00
  3.906250E-01  8.984375E+00  0.000000E+00
  3.906250E-01  9.375000E+00  0.000000E+00
  3.906250E-01  9.765625E+00  0.000000E+00
  3.906250E-01  1.015625E+01  0.000000E+00
  3.906250E-01  1.054688E+01  0.000000E+00
  3.906250E-01  1.093750E+01  0.000000E+00
  3.906250E-01  1.132812E+01  0.000000E+00
  3.906250E-01  1.171875E+01  0.000000E+00
  3.906250E-01  1.210938E+01  0.000000E+00
  3.906250E-01  1.250000E+01  0.000000E+00
  3.906250E-01  1.289062E+01  0.000000E+00
  3.906250E-01  1.328125E+01  0.000000E+00
  3.906250E-01  1.367188E+01  0.000000E+00
  3.906250E-01  1.406250E+01  0.000000E+00
  3.906250E-01  1.445312E+01  0.000000E+00
  3.906250E-01  1.484375E+01  0.000000E+00
  3.906250E-01  1.523438E+01  0.000000E+00
  3.906250E-01  1.562500E+01  0.000000E+00
  3.906250E-01  1.601562E+01  0.000000E+00
  3.906250E-01  1.640625E+01  0.000000E+00
  3.906250E-01  1.679688E+01  0.000000E+00
  3.906250E-01  1.718750E+01  0.000000E+00
  3.906250E-01  1.757812E+01  0.000000E+00
  3.906250E-01  1.796875E+01  0.000000E+00
  3.906250E-01  1.835938E+01  0.000000E+00
  3.906250E-01  1.875000E+01  0.000000E+00
  3.906250E-01  1.914062E+01  0.000000E+00
  3.906250E-01  1.953125E+01  0.000000E+00
  3.906250E-01  1.992188E+01  0.000000E+00
  3.906250E-01  2.031250E+01  0.000000E+00
  3.906250E-01  2.070312E+01  0.000000E+00
  3.906250E-01  2.109375E+01  0.000000E+00
  3.906250E-01  2.148438E+01  0.000000E+00
  3.906250E-01  2.187500E+01  0.000000E+00
  3.906250E-01  2.226562E+01  0.000000E+00
  3.906250E-01  2.265625E+01  0.000000E+00
  3.906250E-01  2.304688E+01  0.000000E+00
  3.906250E-01  2.343750E+01  0.000000E+00
  3.906250E-01  2.382812E+01  0.000000E+00
  3.906250E-01  2.421875E+01  0.000000E+00
  3.906250E-01  2.460938E+01  0.000000E+00
  7.812500E-01  0.000000E+00  0.000000E+00
  7.812500E-01  3.906250E-01  0.000000E+00
  7.812500E-01  7.812500E-01  0.000000E+00
  7.812500E-01  1.171875E+00  0.000000E+00
  7.812500E-01  1.562500E+00  0.000000E+00
  7.812500E-01  1.953125E+00  0.000000E+00
  7.812500E-01  2.343750E+00  0.000000E+00
  7.812500E-01  2.734375E+00  0.000000E+00
  7.812500E-01  3.125000E+00  0.000000E+00
  7.812500E-01  3.515625E+00  0.000000E+00
  7.812500E-01  3.906250E+00  0.000000E+00
  7.812500E-01  4.296875E+00  0.000000E+00
  7.812500E-01  4.687500E+00  0.000000E+00
  7.812500E-01  5.078125E+00  0.000000E+00
  7.812500E-01  5.468750E+00  0.000000E+00
  7.812500E-01  5.859375E+00  0.000000E+00
  7.812500E-01  6.250000E+00  0.000000E+00
  7.812500E-01  6.640625E+00  0.000000E+00
  7.812500E-01  7.031250E+00  0.000000E+00
  7.812500E-01  7.421875E+00  0.000000E+00
  7.812500E-01  7.812500E+00  0.000000E+00
  7.812500E-01  8.203125E+00  0.000000E+00
  7.812500E-01  8.593750E+00  0.000000E+00
  7.812500E-01  8.984375E+00  0.000000E+00
  7.812500E-01  9.375000E+00  0.000000E+00
  7.812500E-01  9.765625E+00  0.000000E+00
  7.812500E-01  1.015625E+01  0.000000E+00
  7.812500E-01  1.054688E+01  0.000000E+00
  7.812500E-01  1.093750E+01  0.000000E+00
  7.812500E-01  1.132812E+01  0.000000E+00
  7.812500E-01  1.171875E+01  0.000000E+00
  7.812500E-01  1.210938E+01  0.000000E+00
  7.812500E-01  1.250000E+01  0.000000E+00
  7.812500E-01  1.289062E+01  0.000000E+00
  7.812500E-01  1.328125E+01  0.000000E+00
  7.812500E-01  1.367188E+01  0.000000E+00
  7.812500E-01  1.406250E+01  0.000000E+00
  7.812500E-01  1.445312E+01  0.000000E+00
  7.812500E-01  1.484375E+01  0.000000E+00
  7.812500E-01  1.523438E+01  0.000000E+00
  7.812500E-01  1.562500E+01  0.000000E+00
  7.812500E-01  1.601562E+01  0.000000E+00
  7.812500E-01  1.640625E+01  0.000000E+00
  7.812500E-01  1.679688E+01  0.000000E+00
  7.812500E-01  1.718750E+01  0.000000E+00
  7.812500E-01  1.757812E+01  0.000000E+00
  7.812500E-01  1.796875E+01  0.000000E+00
  7.812500E-01  1.835938E+01  0.000000E+00
  7.812500E-01  1.875000E+01  0.000000E+00
  7.812500E-01  1.914062E+01  0.000000E+00
  7.812500E-01  1.953125E+01  0.000000E+00
  7.812500E-01  1.992188E+01  0.000000E+00
  7.812500E-01  2.031250E+01  0.000000E+00
  7.812500E-01  2.070312E+01  0.000000E+00
  7.812500E-01  2.109375E+01  0.000000E+00
  7.812500E-01  2.148438E+01  0.000000E+00
  7.812500E-01  2.187500E+01  0.000000E+00
  7.812500E-01  2.226562E+01  0.000000E+00
  7.812500E-01  2.265625E+01  0.000000E+00
  7.812500E-01  2.304688E+01  0.000000E+00
  7.812500E-01  2.343750E+01  0.000000E+00
  7.812500E-01  2.382812E+01  0.000000E+00
  7.812500E-01  2.421875E+01  0.000000E+00
  7.812500E-01  2.460938E+01  0.000000E+00
  1.171875E+00  0.000000E+00  0.000000E+00
  1.171875E+00  3.906250E-01  0.000000E+00
  1.171875E+00  7.812500E-01  0.000000E+00
  1.171875E+00  1.171875E+00  0.000000E+00
  1.171875E+00  1.562500E+00  0.000000E+00
  1.171875E+00  1.953125E+00  0.000000E+00
  1.171875E+00  2.343750E+00  0.000000E+00
  1.171875E+00  2.734375E+00  0.000000E+00
  1.171875E+00  3.125000E+00  0.000000E+00
  1.171875E+00  3.515625E+00  0.000000E+00
  1.171875E+00  3.906250E+00  0.000000E+00
  1.171875E+00  4.296875E+00  0.000000E+00
  1.171875E+00  4.687500E+00  0.000000E+00
  1.171875E+00  5.078125E+00  0.000000E+00
  1.171875E+00  5.468750E+00  0.000000E+00
  1.171875E+00  5.859375E+00  0.000000E+00
  1.171875E+00  6.250000E+00  0.000000E+00
  1.171875E+00  6.640625E+00  0.000000E+00
  1.171875E+00  7.031250E+00  0.000000E+00
  1.171875E+00  7.421875E+00  0.000000E+00
  1.171875E+00  7.812500E+00  0.000000E+00
  1.171875E+00  8.203125E+00  0.000000E+00
  1.171875E+00  8.593750E+00  0.000000E+00
  1.171875E+00  8.984375E+00  0.000000E+00
  1.171875E+00  9.375000E+00  0.000000E+00
  1.171875E+00  9.765625E+00  0.000000E+00
  1.171875E+00  1.015625E+01  0.000000E+00
  1.171875E+00  1.054688E+01  0.000000E+00
  1.171875E+00  1.093750E+01  0.000000E+00
  1.171875E+00  1.132812E+01  0.000000E+00
  1.171875E+00  1.171875E+01  0.000000E+00
  1.171875E+00  1.210938E+01  0.000000E+00
  1.171875E+00  1.250000E+01  0.000000E+00
  1.171875E+00  1.289062E+01  0.000000E+00
  1.171875E+00  1.328125E+01  0.000000E+00
  1.171875E+00  1.367188E+01  0.000000E+00
  1.171875E+00  1.406250E+01  0.000000E+00
  1.171875E+00  1.445312E+01  0.000000E+00
[...]
POINT_DATA   4096
SCALARS CON  float  1
LOOKUP_TABLE default
  4.700588E-01
  4.695003E-01
  4.732326E-01
  4.712563E-01
  4.723953E-01
  4.685370E-01
  4.699753E-01
  4.681502E-01
  4.713866E-01
  4.695628E-01
  4.712386E-01
  4.678227E-01
  4.691147E-01
  4.665822E-01
  4.693281E-01
  4.681595E-01
  4.717490E-01
  4.705123E-01
  4.729123E-01
  4.697535E-01
  4.704353E-01
  4.665298E-01
  4.674141E-01
  4.640463E-01
  4.653687E-01
  4.625590E-01
  4.651002E-01
  4.642091E-01
  4.684475E-01
  4.677180E-01
  4.701803E-01
  4.669891E-01
  4.683159E-01
  4.661772E-01
  4.695276E-01
  4.682746E-01
  4.704567E-01
  4.670160E-01
  4.677428E-01
  4.643430E-01
  4.659837E-01
  4.633521E-01
  4.652423E-01
  4.626968E-01
  4.650182E-01
  4.635215E-01
  4.674975E-01
  4.678158E-01
  4.726951E-01
  4.717925E-01
  4.732160E-01
  4.683460E-01
  4.678928E-01
  4.646976E-01
  4.685783E-01
  4.697476E-01
  4.754337E-01
  4.748967E-01
  4.765374E-01
  4.720249E-01
  4.717032E-01
  4.675420E-01
  4.688960E-01
  4.667413E-01
  4.712609E-01
  4.714681E-01
  4.751034E-01
  4.739886E-01
  4.740600E-01
  4.693899E-01
  4.685662E-01
  4.661444E-01
  4.686408E-01
  4.681553E-01
  4.705488E-01
  4.689957E-01
  4.704747E-01
  4.683575E-01
  4.695177E-01
  4.676784E-01
  4.700610E-01
  4.697641E-01
  4.725818E-01
  4.708043E-01
  4.710472E-01
  4.673930E-01
  4.675887E-01
  4.653058E-01
  4.669769E-01
  4.653882E-01
  4.671888E-01
  4.659571E-01
  4.686464E-01
  4.682034E-01
  4.706771E-01
  4.688909E-01
  4.697824E-01
  4.671895E-01
  4.682212E-01
  4.661069E-01
  4.674494E-01
  4.655575E-01
  4.672264E-01
  4.654767E-01
  4.666136E-01
  4.637915E-01
  4.642130E-01
  4.618047E-01
  4.636421E-01
  4.629871E-01
  4.665658E-01
  4.675646E-01
  4.720598E-01
  4.719946E-01
  4.730892E-01
  4.690749E-01
  4.686297E-01
  4.669846E-01
  4.712929E-01
  4.733783E-01
  4.777962E-01
  4.764157E-01
  4.761734E-01
  4.717303E-01
  4.712429E-01
  4.684896E-01
  4.699191E-01
  4.685315E-01
  4.665103E-01
  4.699389E-01
  4.739625E-01
  4.746051E-01
  4.736345E-01
  4.700261E-01
  4.680301E-01
  4.666605E-01
  4.679953E-01
  4.687417E-01
  4.702553E-01
  4.700112E-01
  4.703955E-01
  4.693891E-01
  4.695245E-01
  4.689060E-01
  4.699966E-01
  4.703253E-01
  4.715362E-01
  4.708349E-01
  4.704031E-01
  4.683836E-01
  4.675209E-01
  4.658444E-01
  4.656334E-01
  4.645855E-01
  4.649706E-01
  4.646030E-01
  4.656557E-01
  4.655575E-01
  4.662149E-01
  4.654185E-01
  4.659326E-01
  4.659988E-01
  4.677186E-01
  4.680598E-01
  4.685737E-01
  4.670395E-01
  4.663166E-01
  4.646322E-01
  4.641849E-01
  4.624775E-01
  4.618742E-01
  4.606666E-01
  4.616373E-01
  4.626909E-01
  4.658537E-01
  4.683603E-01
  4.716099E-01
  4.723126E-01
  4.721341E-01
  4.693835E-01
  4.679127E-01
  4.670909E-01
  4.696812E-01
  4.724995E-01
  4.760074E-01
  4.763518E-01
  4.752268E-01
  4.710782E-01
  4.675783E-01
  4.638356E-01
  4.629720E-01
  4.631428E-01
  4.671972E-01
  4.713358E-01
  4.736575E-01
  4.752527E-01
  4.724090E-01
  4.691493E-01
  4.648176E-01
  4.640747E-01
  4.641682E-01
  4.669894E-01
  4.684474E-01
  4.707456E-01
  4.706230E-01
  4.709250E-01
  4.691089E-01
  4.689683E-01
  4.684074E-01
  4.703753E-01
  4.710635E-01
  4.723231E-01
  4.708606E-01
  4.701156E-01
  4.680191E-01
  4.679823E-01
  4.669683E-01
  4.674497E-01
  4.662090E-01
  4.663222E-01
  4.653497E-01
  4.665447E-01
  4.667732E-01
  4.683045E-01
  4.676706E-01
  4.677755E-01
  4.661358E-01
  4.661802E-01
  4.652998E-01
  4.664493E-01
  4.663893E-01
  4.673919E-01
  4.659711E-01
  4.651859E-01
  4.630566E-01
  4.634950E-01
  4.637539E-01
  4.661175E-01
  4.670140E-01
  4.691963E-01
  4.696855E-01
  4.709542E-01
  4.695769E-01
  4.687819E-01
  4.669535E-01
  4.683261E-01
  4.700859E-01
  4.738468E-01
  4.749257E-01
  4.752390E-01
  4.721447E-01
  4.697255E-01
  4.662497E-01
  4.652698E-01
  4.640316E-01
  4.655964E-01
  4.638679E-01
  4.696653E-01
  4.709467E-01
  4.735623E-01
  4.697528E-01
  4.682907E-01
  4.636087E-01
  4.644584E-01
  4.634263E-01
  4.672042E-01
  4.673312E-01
  4.705622E-01
  4.691091E-01
  4.706152E-01
  4.681520E-01
  4.698394E-01
  4.684967E-01
  4.713613E-01
  4.703724E-01
  4.725198E-01
  4.701631E-01
  4.708918E-01
  4.674492E-01
  4.676197E-01
  4.642822E-01
  4.651823E-01
  4.628572E-01
  4.646441E-01
  4.629751E-01
  4.653399E-01
  4.641796E-01
  4.667466E-01
  4.653931E-01
  4.676712E-01
  4.662445E-01
  4.685365E-01
  4.668370E-01
  4.685098E-01
  4.661466E-01
  4.672799E-01
  4.643900E-01
  4.651381E-01
  4.626517E-01
  4.650513E-01
  4.648338E-01
  4.686753E-01
  4.681860E-01
  4.705393E-01
  4.685015E-01
  4.698013E-01
  4.669790E-01
  4.676546E-01
  4.649009E-01
  4.668931E-01
  4.663907E-01
  4.703752E-01
  4.703744E-01
  4.729161E-01
  4.700568E-01
  4.694858E-01
  4.644836E-01
  4.635702E-01
  4.603009E-01
  4.628903E-01
  4.667068E-01
  4.708607E-01
  4.702232E-01
  4.726124E-01
  4.682892E-01
  4.672044E-01
  4.618640E-01
  4.628006E-01
  4.611818E-01
  4.655398E-01
  4.657122E-01
  4.699319E-01
  4.684521E-01
  4.703941E-01
  4.672355E-01
  4.691440E-01
  4.676465E-01
  4.716857E-01
  4.711206E-01
  4.740987E-01
  4.711045E-01
  4.716605E-01
  4.672991E-01
  4.677868E-01
  4.643086E-01
  4.660427E-01
  4.636164E-01
  4.660256E-01
  4.642789E-01
  4.678364E-01
  4.673870E-01
  4.712155E-01
  4.691764E-01
  4.702546E-01
  4.661684E-01
  4.672783E-01
  4.650586E-01
  4.684053E-01
  4.672880E-01
  4.699300E-01
  4.668167E-01
  4.677465E-01
  4.648814E-01
  4.682494E-01
  4.681704E-01
  4.722336E-01
  4.700923E-01
  4.710785E-01
  4.671156E-01
  4.681454E-01
  4.650109E-01
  4.666604E-01
  4.641490E-01
  4.670582E-01
  4.661803E-01
  4.699509E-01
  4.683952E-01
  4.704329E-01
  4.673285E-01
  4.688219E-01
  4.660061E-01
  4.679381E-01
  4.654148E-01
  4.679102E-01
  4.645141E-01
  4.683799E-01
  4.678834E-01
  4.703852E-01
  4.673202E-01
  4.676406E-01
  4.639639E-01
  4.653286E-01
  4.636039E-01
  4.668676E-01
  4.661952E-01
  4.692502E-01
  4.673454E-01
  4.690829E-01
  4.668572E-01
  4.696251E-01
  4.690564E-01
  4.728723E-01
  4.719605E-01
  4.741834E-01
  4.711356E-01
  4.712981E-01
  4.666059E-01
  4.659197E-01
  4.616919E-01
  4.629082E-01
  4.612684E-01
  4.645734E-01
  4.639358E-01
  4.674895E-01
  4.668252E-01
  4.700014E-01
  4.683695E-01
  4.703620E-01
  4.681472E-01
  4.704277E-01
  4.687057E-01
  4.708453E-01
  4.681995E-01
  4.691422E-01
  4.656701E-01
  4.667100E-01
  4.646404E-01
  4.681388E-01
  4.683100E-01
  4.721938E-01
  4.703865E-01
  4.712404E-01
  4.673653E-01
  4.680174E-01
  4.650764E-01
  4.665857E-01
  4.640191E-01
  4.658602E-01
  4.639900E-01
  4.667263E-01
  4.654872E-01
  4.683215E-01
  4.666674E-01
  4.686802E-01
  4.659279E-01
  4.668997E-01
  4.637869E-01
  4.656390E-01
  4.667769E-01
  4.683066E-01
  4.676389E-01
  4.697149E-01
  4.680999E-01
  4.684228E-01
  4.655948E-01
  4.661068E-01
  4.647183E-01
  4.670639E-01
  4.669432E-01
  4.693768E-01
  4.681797E-01
  4.691265E-01
  4.672124E-01
  4.690182E-01
  4.692094E-01
  4.729342E-01
  4.733207E-01
  4.750632E-01
  4.722388E-01
  4.711057E-01
  4.668602E-01
  4.660272E-01
  4.634482E-01
  4.649320E-01
  4.644129E-01
  4.670544E-01
  4.669461E-01
  4.699702E-01
  4.704224E-01
  4.733363E-01
  4.721191E-01
  4.723292E-01
  4.691959E-01
  4.696252E-01
  4.683701E-01
  4.705968E-01
  4.696662E-01
  4.706544E-01
  4.679605E-01
  4.681022E-01
  4.664182E-01
  4.690109E-01
  4.694278E-01
  4.719761E-01
  4.701431E-01
  4.700798E-01
  4.672132E-01
  4.678982E-01
  4.662146E-01
  4.674080E-01
  4.657984E-01
  4.674448E-01
  4.666639E-01
  4.686042E-01
  4.670275E-01
  4.677782E-01
  4.659062E-01
  4.677028E-01
  4.672787E-01
  4.695289E-01
  4.681052E-01
  4.688319E-01
  4.631913E-01
  4.649369E-01
  4.655968E-01
  4.681029E-01
  4.684309E-01
  4.699291E-01
  4.691368E-01
  4.698302E-01
  4.687964E-01
  4.697737E-01
  4.690995E-01
  4.699235E-01
  4.685049E-01
  4.687095E-01
  4.677041E-01
  4.695025E-01
  4.703766E-01
  4.730801E-01
  4.732145E-01
  4.738433E-01
  4.714814E-01
  4.700473E-01
  4.665422E-01
  4.651577E-01
  4.630598E-01
  4.641652E-01
  4.646294E-01
  4.671350E-01
  4.674378E-01
  4.689970E-01
  4.686099E-01
  4.700037E-01
  4.695882E-01
  4.709173E-01
  4.706379E-01
  4.722469E-01
  4.717103E-01
  4.719812E-01
  4.694762E-01
  4.683320E-01
  4.658165E-01
  4.659819E-01
  4.653756E-01
  4.672398E-01
  4.674900E-01
  4.690928E-01
  4.682953E-01
  4.689210E-01
  4.679114E-01
  4.689368E-01
  4.681362E-01
  4.686994E-01
  4.672043E-01
  4.676676E-01
  4.668751E-01
  4.681815E-01
  4.676032E-01
  4.684239E-01
  4.672094E-01
  4.676671E-01
  4.662209E-01
  4.662357E-01
  4.642364E-01
  4.642096E-01
  4.647234E-01
  4.651203E-01
  4.656831E-01
  4.680694E-01
  4.690749E-01
  4.703246E-01
  4.696210E-01
  4.697238E-01
  4.689372E-01
  4.697392E-01
  4.696823E-01
  4.705174E-01
  4.695913E-01
  4.692218E-01
  4.678074E-01
  4.684157E-01
  4.691563E-01
  4.717552E-01
  4.728081E-01
  4.735223E-01
  4.714482E-01
  4.695576E-01
  4.667517E-01
  4.661938E-01
  4.659531E-01
  4.679128E-01
  4.689866E-01
  4.705951E-01
  4.702720E-01
  4.707481E-01
  4.703580E-01
  4.713267E-01
  4.708755E-01
  4.709550E-01
  4.696915E-01
  4.699098E-01
  4.694422E-01
  4.700310E-01
  4.689259E-01
  4.683804E-01
  4.666620E-01
  4.666278E-01
  4.663033E-01
  4.676394E-01
  4.677194E-01
  4.683021E-01
  4.673309E-01
  4.677527E-01
  4.677761E-01
  4.692923E-01
  4.692466E-01
  4.695523E-01
  4.685506E-01
  4.693523E-01
  4.698277E-01
  4.713488E-01
  4.706782E-01
  4.699779E-01
  4.679154E-01
  4.677244E-01
  4.672917E-01
  4.681036E-01
  4.670911E-01
  4.664460E-01
  4.616950E-01
  4.631432E-01
  4.642768E-01
  4.670903E-01
  4.684763E-01
  4.705308E-01
  4.705299E-01
  4.711347E-01
  4.702132E-01
  4.706661E-01
  4.699584E-01
  4.702699E-01
  4.688274E-01
  4.684369E-01
  4.672344E-01
  4.682644E-01
  4.689231E-01
  4.711136E-01
  4.715032E-01
  4.720695E-01
  4.702073E-01
  4.688519E-01
  4.661903E-01
  4.655510E-01
  4.649723E-01
  4.669756E-01
  4.682819E-01
  4.702947E-01
  4.697402E-01
  4.693202E-01
  4.673573E-01
  4.672113E-01
  4.666935E-01
  4.682459E-01
  4.689868E-01
  4.708355E-01
  4.704800E-01
  4.699732E-01
  4.671154E-01
  4.654995E-01
  4.636517E-01
  4.644174E-01
  4.647369E-01
  4.663120E-01
  4.661320E-01
  4.668631E-01
  4.664885E-01
  4.679289E-01
  4.685167E-01
  4.701478E-01
  4.696498E-01
  4.695012E-01
  4.678463E-01
  4.681072E-01
  4.681206E-01
  4.699796E-01
  4.703199E-01
  4.711069E-01
  4.697933E-01
  4.691960E-01
  4.670024E-01
  4.658451E-01
  4.634113E-01
  4.626999E-01
  4.645197E-01
  4.651040E-01
  4.652717E-01
  4.677178E-01
  4.683715E-01
  4.697885E-01
  4.687177E-01
  4.688426E-01
  4.675885E-01
  4.685003E-01
  4.682151E-01
  4.693899E-01
  4.683195E-01
  4.681951E-01
  4.664162E-01
  4.670293E-01
  4.672973E-01
  4.700757E-01
  4.711204E-01
  4.725329E-01
  4.706908E-01
  4.693503E-01
  4.664852E-01
  4.663852E-01
  4.662655E-01
  4.688964E-01
  4.700563E-01
  4.719354E-01
  4.709642E-01
  4.708033E-01
  4.690347E-01
  4.692481E-01
  4.680549E-01
  4.683754E-01
  4.670804E-01
  4.676436E-01
  4.668695E-01
  4.676030E-01
  4.663261E-01
  4.663566E-01
  4.649815E-01
  4.658419E-01
  4.657446E-01
  4.674401E-01
  4.671808E-01
  4.680144E-01
  4.671319E-01
  4.682620E-01
  4.682332E-01
  4.696281E-01
  4.685838E-01
  4.683929E-01
  4.667835E-01
  4.679060E-01
  4.685948E-01
  4.711015E-01
  4.711497E-01
  4.716498E-01
  4.699698E-01
  4.700281E-01
  4.687886E-01
  4.690456E-01
  4.671833E-01
  4.665202E-01
  4.627400E-01
  4.644890E-01
  4.648192E-01
  4.672654E-01
  4.676742E-01
  4.695569E-01
  4.687947E-01
  4.693033E-01
  4.676688E-01
  4.682118E-01
  4.671411E-01
  4.679601E-01
  4.665355E-01
  4.669220E-01
  4.658110E-01
  4.674291E-01
  4.678108E-01
  4.703320E-01
  4.705914E-01
  4.719920E-01
  4.704062E-01
  4.697197E-01
  4.665599E-01
  4.656396E-01
  4.639598E-01
  4.656892E-01
  4.664570E-01
  4.690208E-01
  4.685744E-01
  4.688017E-01
  4.664931E-01
  4.663990E-01
  4.652202E-01
  4.668206E-01
  4.669449E-01
  4.688255E-01
  4.680026E-01
  4.680763E-01
  4.655544E-01
  4.651041E-01
  4.635747E-01
  4.649212E-01
  4.648260E-01
  4.665878E-01
  4.661455E-01
  4.675213E-01
  4.670964E-01
  4.687030E-01
  4.681611E-01
  4.689381E-01
  4.670891E-01
  4.668384E-01
  4.649899E-01
  4.659296E-01
  4.658945E-01
  4.683809E-01
  4.689778E-01
  4.710244E-01
  4.703071E-01
  4.705111E-01
  4.678896E-01
  4.667416E-01
  4.638870E-01
  4.637659E-01
  4.666635E-01
  4.672050E-01
  4.666829E-01
  4.680476E-01
  4.679075E-01
  4.687681E-01
  4.674503E-01
  4.672347E-01
  4.656705E-01
  4.661433E-01
  4.656263E-01
  4.667329E-01
  4.660969E-01
  4.666872E-01
  4.658648E-01
  4.670790E-01
  4.675432E-01
  4.700359E-01
  4.709749E-01
  4.726319E-01
  4.715126E-01
  4.706541E-01
  4.676963E-01
  4.665497E-01
  4.649363E-01
  4.660148E-01
  4.663677E-01
  4.682757E-01
  4.682096E-01
  4.691142E-01
  4.682936E-01
  4.689460E-01
  4.679525E-01
  4.681001E-01
  4.664866E-01
  4.665076E-01
  4.655127E-01
  4.664904E-01
  4.661539E-01
  4.671959E-01
  4.665260E-01
  4.672757E-01
  4.666695E-01
  4.677750E-01
  4.674232E-01
  4.683425E-01
  4.674390E-01
  4.678178E-01
  4.665941E-01
  4.667341E-01
  4.652607E-01
  4.654866E-01
  4.649215E-01
  4.667609E-01
  4.675849E-01
  4.696013E-01
  4.692892E-01
  4.697249E-01
  4.683905E-01
  4.686901E-01
  4.677267E-01
  4.683590E-01
  4.674168E-01
  4.678173E-01
  4.661508E-01
  4.671241E-01
  4.669942E-01
  4.674141E-01
  4.674988E-01
  4.683600E-01
  4.683026E-01
  4.682846E-01
  4.672347E-01
  4.667717E-01
  4.658567E-01
  4.657045E-01
  4.651384E-01
  4.656939E-01
  4.663602E-01
  4.681552E-01
  4.692775E-01
  4.705738E-01
  4.708522E-01
  4.715174E-01
  4.711567E-01
  4.705308E-01
  4.681659E-01
  4.657623E-01
  4.631045E-01
  4.623717E-01
  4.625432E-01
  4.642092E-01
  4.651079E-01
  4.658441E-01
  4.653461E-01
  4.655383E-01
  4.657156E-01
  4.670657E-01
  4.678209E-01
  4.686406E-01
  4.680381E-01
  4.674665E-01
  4.662099E-01
  4.659825E-01
  4.656660E-01
  4.662667E-01
  4.662578E-01
  4.667890E-01
  4.666837E-01
  4.671643E-01
  4.668140E-01
  4.666993E-01
  4.656324E-01
  4.651643E-01
  4.644617E-01
  4.650097E-01
  4.654801E-01
  4.667259E-01
  4.671012E-01
  4.677018E-01
  4.674132E-01
  4.675800E-01
  4.668494E-01
  4.663076E-01
  4.648979E-01
  4.644328E-01
  4.641966E-01
  4.653847E-01
  4.713357E-01
  4.704143E-01
  4.693642E-01
  4.680093E-01
  4.676914E-01
  4.671870E-01
  4.671490E-01
  4.664573E-01
  4.662361E-01
  4.656089E-01
  4.655958E-01
  4.651810E-01
  4.654724E-01
  4.656624E-01
  4.668481E-01
  4.678539E-01
  4.693549E-01
  4.701195E-01
  4.711214E-01
  4.713216E-01
  4.714968E-01
  4.703450E-01
  4.688432E-01
  4.664045E-01
  4.647297E-01
  4.634150E-01
  4.636478E-01
  4.641142E-01
  4.652889E-01
  4.658464E-01
  4.668546E-01
  4.674628E-01
  4.685207E-01
  4.685816E-01
  4.683803E-01
  4.671664E-01
  4.665724E-01
  4.661013E-01
  4.667796E-01
  4.671819E-01
  4.678502E-01
  4.676819E-01
  4.679710E-01
  4.679604E-01
  4.684498E-01
  4.679003E-01
  4.670350E-01
  4.651972E-01
  4.641276E-01
  4.633985E-01
  4.641702E-01
  4.652806E-01
  4.673806E-01
  4.688739E-01
  4.700232E-01
  4.693281E-01
  4.679409E-01
  4.656008E-01
  4.642075E-01
  4.633942E-01
  4.644124E-01
  4.660797E-01
  4.687474E-01
  4.704282E-01
  4.711635E-01
  4.704935E-01
  4.695833E-01
  4.673677E-01
  4.670220E-01
  4.664912E-01
  4.674764E-01
  4.671886E-01
  4.675819E-01
  4.664657E-01
  4.661567E-01
  4.646724E-01
  4.647086E-01
  4.646242E-01
  4.667390E-01
  4.681729E-01
  4.701194E-01
  4.698822E-01
  4.700868E-01
  4.692690E-01
  4.698340E-01
  4.690002E-01
  4.682813E-01
  4.654423E-01
  4.635156E-01
  4.613932E-01
  4.618444E-01
  4.622664E-01
  4.638899E-01
  4.638237E-01
  4.644918E-01
  4.644967E-01
  4.665476E-01
  4.680302E-01
  4.701400E-01
  4.698628E-01
  4.693824E-01
  4.671657E-01
  4.662788E-01
  4.650339E-01
  4.656591E-01
  4.656614E-01
  4.669567E-01
  4.671067E-01
  4.680357E-01
  4.671880E-01
  4.666396E-01
  4.645376E-01
  4.638460E-01
  4.630543E-01
  4.645809E-01
  4.658160E-01
  4.681622E-01
  4.685875E-01
  4.688992E-01
  4.671273E-01
  4.661400E-01
  4.642805E-01
  4.639115E-01
  4.628227E-01
  4.634803E-01
  4.641179E-01
  4.669693E-01
  4.690039E-01
  4.749561E-01
  4.726982E-01
  4.710645E-01
  4.679049E-01
  4.670924E-01
  4.653577E-01
  4.657098E-01
  4.647059E-01
  4.654961E-01
  4.646644E-01
  4.653205E-01
  4.642291E-01
  4.649257E-01
  4.644853E-01
  4.662475E-01
  4.666192E-01
  4.683484E-01
  4.679051E-01
  4.687204E-01
  4.678858E-01
  4.687829E-01
  4.679119E-01
  4.682096E-01
  4.663723E-01
  4.660262E-01
  4.644551E-01
  4.652334E-01
  4.649282E-01
  4.663537E-01
  4.660418E-01
  4.675200E-01
  4.678453E-01
  4.700384E-01
  4.700368E-01
  4.704588E-01
  4.682124E-01
  4.674218E-01
  4.656477E-01
  4.663406E-01
  4.658538E-01
  4.670386E-01
  4.666340E-01
  4.681636E-01
  4.683089E-01
  4.696582E-01
  4.681427E-01
  4.669413E-01
  4.637197E-01
  4.630171E-01
  4.622669E-01
  4.645272E-01
  4.658254E-01
  4.686811E-01
  4.692168E-01
  4.702477E-01
  4.684252E-01
  4.674440E-01
  4.648286E-01
  4.645939E-01
  4.639581E-01
  4.663534E-01
  4.682895E-01
  4.722305E-01
  4.736938E-01
  4.719214E-01
  4.703360E-01
  4.699012E-01
  4.669162E-01
  4.667373E-01
  4.650545E-01
  4.661122E-01
  4.649625E-01
  4.659483E-01
  4.645026E-01
  4.651848E-01
  4.635477E-01
  4.644461E-01
  4.637346E-01
  4.659957E-01
  4.660948E-01
  4.677379E-01
  4.660856E-01
  4.662853E-01
  4.647610E-01
  4.664584E-01
  4.662874E-01
  4.678290E-01
  4.660696E-01
  4.660070E-01
  4.640605E-01
  4.653711E-01
  4.650973E-01
  4.669307E-01
  4.658395E-01
  4.667854E-01
  4.660945E-01
  4.686400E-01
  4.692229E-01
  4.713002E-01
  4.697201E-01
  4.692741E-01
  4.661906E-01
  4.657603E-01
  4.638589E-01
  4.651183E-01
  4.648518E-01
  4.672717E-01
  4.673100E-01
  4.688900E-01
  4.670580E-01
  4.665089E-01
  4.634557E-01
  4.633892E-01
  4.623274E-01
  4.646966E-01
  4.652975E-01
  4.678679E-01
  4.673256E-01
  4.682328E-01
  4.665962E-01
  4.675979E-01
  4.668587E-01
  4.685018E-01
  4.675109E-01
  4.685194E-01
  4.675980E-01
  4.697161E-01
  4.699622E-01
  4.727139E-01
  4.699935E-01
  4.702119E-01
  4.671396E-01
  4.675110E-01
  4.647076E-01
  4.653085E-01
  4.628408E-01
  4.640321E-01
  4.623483E-01
  4.643175E-01
  4.632350E-01
  4.655512E-01
  4.645326E-01
  4.665932E-01
  4.649745E-01
  4.661990E-01
  4.638700E-01
  4.650198E-01
  4.635217E-01
  4.660845E-01
  4.657662E-01
  4.685560E-01
  4.674788E-01
  4.692180E-01
  4.676124E-01
  4.695382E-01
  4.682808E-01
  4.701216E-01
  4.684930E-01
  4.703945E-01
  4.694764E-01
  4.718508E-01
  4.700402E-01
  4.702356E-01
  4.664543E-01
  4.663899E-01
  4.641346E-01
  4.661138E-01
  4.651472E-01
  4.674588E-01
  4.665640E-01
  4.692308E-01
  4.686029E-01
  4.705123E-01
  4.677704E-01
  4.672025E-01
  4.632769E-01
  4.636655E-01
  4.621461E-01
  4.649100E-01
  4.647476E-01
  4.678262E-01
  4.673780E-01
  4.699221E-01
  4.689067E-01
  4.710546E-01
  4.698913E-01
  4.719653E-01
  4.705982E-01
  4.724253E-01
  4.710292E-01
  4.730124E-01
  4.715003E-01
  4.679963E-01
  4.667985E-01
  4.686589E-01
  4.665646E-01
  4.678078E-01
  4.656427E-01
  4.669843E-01
  4.646905E-01
  4.657538E-01
  4.634377E-01
  4.649675E-01
  4.634555E-01
  4.658255E-01
  4.649562E-01
  4.675096E-01
  4.660175E-01
  4.670876E-01
  4.639560E-01
  4.644630E-01
  4.625764E-01
  4.655017E-01
  4.655304E-01
  4.685410E-01
  4.670191E-01
  4.683530E-01
  4.664321E-01
  4.686598E-01
  4.676535E-01
  4.696450E-01
  4.674325E-01
  4.685514E-01
  4.667462E-01
  4.690749E-01
  4.679393E-01
  4.696551E-01
  4.671294E-01
  4.677015E-01
  4.648318E-01
  4.658047E-01
  4.638907E-01
  4.662430E-01
  4.658002E-01
  4.690636E-01
  4.683682E-01
  4.701747E-01
  4.674787E-01
  4.677242E-01
  4.646071E-01
  4.656013E-01