# vtk DataFile Version 2.0
title
ASCII
DATASET STRUCTURED_GRID
DIMENSIONS   64   64    1
POINTS   4096  float
  0.000000E+00  0.000000E+00  0.000000E+00
  0.000000E+00  3.906250E-01  0.000000E+00
  0.000000E+00  7.812500E-01  0.000000E+00
  0.000000E+00  1.171875E+00  0.000000E+00
  0.000000E+00  1.562500E+00  0.000000E+00
  0.000000E+00  1.953125E+00  0.000000E+00
  0.000000E+00  2.343750E+00  0.000000E+00
  0.000000E+00  2.734375E+00  0.000000E+00
  0.000000E+00  3.125000E+00  0.000000E+00
  0.000000E+00  3.515625E+00  0.000000E+00
  0.000000E+00  3.906250E+00  0.000000E+00
  0.000000E+00  4.296875E+00  0.000000E+00
  0.000000E+00  4.687500E+00  0.000000E+00
  0.000000E+00  5.078125E+00  0.000000E+00
  0.000000E+00  5.468750E+00  0.000000E+00
  0.000000E+00  5.859375E+00  0.000000E+00
  0.000000E+00  6.250000E+00  0.000000E+00
  0.000000E+00  6.640625E+00  0.000000E+00
  0.000000E+00  7.031250E+00  0.000000E+00
  0.000000E+00  7.421875E+00  0.000000E+00
  0.000000E+00  7.812500E+00  0.000000E+00
  0.000000E+00  8.203125E+00  0.000000E+00
  0.000000E+00  8.593750E+00  0.000000E+00
  0.000000E+00  8.984375E+00  0.000000E+00
  0.000000E+00  9.375000E+00  0.000000E+00
  0.000000E+00  9.765625E+00  0.000000E+00
  0.000000E+00  1.015625E+01  0.000000E+00
  0.000000E+00  1.054688E+01  0.000000E+00
  0.000000E+00  1.093750E+01  0.000000E+00
  0.000000E+00  1.132812E+01  0.000000E+00
  0.000000E+00  1.171875E+01  0.000000E+00
  0.000000E+00  1.210938E+01  0.000000E+00
  0.000000E+00  1.250000E+01  0.000000E+00
  0.000000E+00  1.289062E+01  0.000000E+00
  0.000000E+00  1.328125E+01  0.000000E+00
  0.000000E+00  1.367188E+01  0.000000E+00
  0.000000E+00  1.406250E+01  0.000000E+00
  0.000000E+00  1.445312E+01  0.000000E+00
  0.000000E+00  1.484375E+01  0.000000E+00
  0.000000E+00  1.523438E+01  0.000000E+00
  0.000000E+00  1.562500E+01  0.000000E+00
  0.000000E+00  1.601562E+01  0.000000E+00
  0.000000E+00  1.640625E+01  0.000000E+00
  0.000000E+00  1.679688E+01  0.000000E+00
  0.000000E+00  1.718750E+01  0.000000E+00
  0.000000E+00  1.757812E+01  0.000000E+00
  0.000000E+00  1.796875E+01  0.000000E+00
  0.000000E+00  1.835938E+01  0.000000E+00
  0.000000E+00  1.875000E+01  0.000000E+00
  0.000000E+00  1.914062E+01  0.000000E+00
  0.000000E+00  1.953125E+01  0.000000E+00
  0.000000E+00  1.992188E+01  0.000000E+00
  0.000000E+00  2.031250E+01  0.000000E+00
  0.000000E+00  2.070312E+01  0.000000E+00
  0.000000E+00  2.109375E+01  0.000000E+00
  0.000000E+00  2.148438E+01  0.000000E+00
  0.000000E+00  2.187500E+01  0.000000E+00
  0.000000E+00  2.226562E+01  0.000000E+00
  0.000000E+00  2.265625E+01  0.000000E+00
  0.000000E+00  2.304688E+01  0.000000E+00
  0.000000E+00  2.343750E+01  0.000000E+00
  0.000000E+00  2.382812E+01  0.000000E+00
  0.000000E+00  2.421875E+01  0.000000E+00
  0.000000E+00  2.460938E+01  0.000000E+00
  3.906250E-01  0.000000E+00  0.000000E+00
  3.906250E-01  3.906250E-01  0.000000E+00
  3.906250E-01  7.812500E-01  0.000000E+00
  3.906250E-01  1.171875E+00  0.000000E+00
  3.906250E-01  1.562500E+00  0.000000E+00
  3.906250E-01  1.953125E+00  0.000000E+00
  3.906250E-01  2.343750E+00  0.000000E+00
  3.906250E-01  2.734375E+00  0.000000E+00
  3.906250E-01  3.125000E+00  0.000000E+00
  3.906250E-01  3.515625E+00  0.000000E+00
  3.906250E-01  3.906250E+00  0.000000E+00
  3.906250E-01  4.296875E+00  0.000000E+00
  3.906250E-01  4.687500E+00  0.000000E+00
  3.906250E-01  5.078125E+00  0.000000E+00
  3.906250E-01  5.468750E+00  0.000000E+00
  3.906250E-01  5.859375E+00  0.000000E+00
  3.906250E-01  6.250000E+00  0.000000E+00
  3.906250E-01  6.640625E+00  0.000000E+00
  3.906250E-01  7.031250E+00  0.000000E+00
  3.906250E-01  7.421875E+00  0.000000E+00
  3.906250E-01  7.812500E+00  0.000000E+00
  3.906250E-01  8.203125E+00  0.000000E+00
  3.906250E-01  8.593750E+00  0.000000E+00
  3.906250E-01  8.984375E+00  0.000000E+00
  3.906250E-01  9.375000E+00  0.000000E+00
  3.906250E-01  9.765625E+00  0.000000E+00
  3.906250E-01  1.015625E+01  0.000000E+00
  3.906250E-01  1.054688E+01  0.000000E+00
  3.906250E-01  1.093750E+01  0.000000E+00
  3.906250E-01  1.132812E+01  0.000000E+00
  3.906250E-01  1.171875E+01  0.000000E+00
  3.906250E-01  1.210938E+01  0.000000E+00
  3.906250E-01  1.250000E+01  0.000000E+00
  3.906250E-01  1.289062E+01  0.000000E+00
  3.906250E-01  1.328125E+01  0.000000E+00
  3.906250E-01  1.367188E+01  0.000000E+00
  3.906250E-01  1.406250E+01  0.000000E+00
  3.906250E-01  1.445312E+01  0.000000E+00
  3.906250E-01  1.484375E+01  0.000000E+00
  3.906250E-01  1.523438E+01  0.000000E+00
  3.906250E-01  1.562500E+01  0.000000E+00
  3.906250E-01  1.601562E+01  0.000000E+00
  3.906250E-01  1.640625E+01  0.000000E+00
  3.906250E-01  1.679688E+01  0.000000E+00
  3.906250E-01  1.718750E+01  0.000000E+00
  3.906250E-01  1.757812E+01  0.000000E+00
  3.906250E-01  1.796875E+01  0.000000E+00
  3.906250E-01  1.835938E+01  0.000000E+00
  3.906250E-01  1.875000E+01  0.000000E+00
  3.906250E-01  1.914062E+01  0.000000E+00
  3.906250E-01  1.953125E+01  0.000000E+00
  3.906250E-01  1.992188E+01  0.000000E+00
  3.906250E-01  2.031250E+01  0.000000E+00
  3.906250E-01  2.070312E+01  0.000000E+00
  3.906250E-01  2.109375E+01  0.000000E+00
  3.906250E-01  2.148438E+01  0.000000E+00
  3.906250E-01  2.187500E+01  0.000000E+00
  3.906250E-01  2.226562E+01  0.000000E+00
  3.906250E-01  2.265625E+01  0.000000E+00
  3.906250E-01  2.304688E+01  0.000000E+00
  3.906250E-01  2.343750E+01  0.000000E+00
  3.906250E-01  2.382812E+01  0.000000E+00
  3.906250E-01  2.421875E+01  0.000000E+00
  3.906250E-01  2.460938E+01  0.000000E+00
  7.812500E-01  0.000000E+00  0.000000E+00
  7.812500E-01  3.906250E-01  0.000000E+00
  7.812500E-01  7.812500E-01  0.000000E+00
  7.812500E-01  1.171875E+00  0.000000E+00
  7.812500E-01  1.562500E+00  0.000000E+00
  7.812500E-01  1.953125E+00  0.000000E+00
  7.812500E-01  2.343750E+00  0.000000E+00
  7.812500E-01  2.734375E+00  0.000000E+00
  7.812500E-01  3.125000E+00  0.000000E+00
  7.812500E-01  3.515625E+00  0.000000E+00
  7.812500E-01  3.906250E+00  0.000000E+00
  7.812500E-01  4.296875E+00  0.000000E+00
  7.812500E-01  4.687500E+00  0.000000E+00
  7.812500E-01  5.078125E+00  0.000000E+00
  7.812500E-01  5.468750E+00  0.000000E+00
  7.812500E-01  5.859375E+00  0.000000E+00
  7.812500E-01  6.250000E+00  0.000000E+00
  7.812500E-01  6.640625E+00  0.000000E+00
  7.812500E-01  7.031250E+00  0.000000E+00
  7.812500E-01  7.421875E+00  0.000000E+00
  7.812500E-01  7.812500E+00  0.000000E+00
  7.812500E-01  8.203125E+00  0.000000E+00
  7.812500E-01  8.593750E+00  0.000000E+00
  7.812500E-01  8.984375E+00  0.000000E+00
  7.812500E-01  9.375000E+00  0.000000E+00
  7.812500E-01  9.765625E+00  0.000000E+00
  7.812500E-01  1.015625E+01  0.000000E+00
  7.812500E-01  1.054688E+01  0.000000E+00
  7.812500E-01  1.093750E+01  0.000000E+00
  7.812500E-01  1.132812E+01  0.000000E+00
  7.812500E-01  1.171875E+01  0.000000E+00
  7.812500E-01  1.210938E+01  0.000000E+00
  7.812500E-01  1.250000E+01  0.000000E+00
  7.812500E-01  1.289062E+01  0.000000E+00
  7.812500E-01  1.328125E+01  0.000000E+00
  7.812500E-01  1.367188E+01  0.000000E+00
  7.812500E-01  1.406250E+01  0.000000E+00
  7.812500E-01  1.445312E+01  0.000000E+00
  7.812500E-01  1.484375E+01  0.000000E+00
  7.812500E-01  1.523438E+01  0.000000E+00
  7.812500E-01  1.562500E+01  0.000000E+00
  7.812500E-01  1.601562E+01  0.000000E+00
  7.812500E-01  1.640625E+01  0.000000E+00
  7.812500E-01  1.679688E+01  0.000000E+00
  7.812500E-01  1.718750E+01  0.000000E+00
  7.812500E-01  1.757812E+01  0.000000E+00
  7.812500E-01  1.796875E+01  0.000000E+00
  7.812500E-01  1.835938E+01  0.000000E+00
  7.812500E-01  1.875000E+01  0.000000E+00
  7.812500E-01  1.914062E+01  0.000000E+00
  7.812500E-01  1.953125E+01  0.000000E+00
  7.812500E-01  1.992188E+01  0.000000E+00
  7.812500E-01  2.031250E+01  0.000000E+00
  7.812500E-01  2.070312E+01  0.000000E+00
  7.812500E-01  2.109375E+01  0.000000E+00
  7.812500E-01  2.148438E+01  0.000000E+00
  7.812500E-01  2.187500E+01  0.000000E+00
  7.812500E-01  2.226562E+01  0.000000E+00
  7.812500E-01  2.265625E+01  0.000000E+00
  7.812500E-01  2.304688E+01  0.000000E+00
  7.812500E-01  2.343750E+01  0.000000E+00
  7.812500E-01  2.382812E+01  0.000000E+00
  7.812500E-01  2.421875E+01  0.000000E+00
  7.812500E-01  2.460938E+01  0.000000E+00
  1.171875E+00  0.000000E+00  0.000000E+00
  1.171875E+00  3.906250E-01  0.000000E+00
  1.171875E+00  7.812500E-01  0.000000E+00
  1.171875E+00  1.171875E+00  0.000000E+00
  1.171875E+00  1.562500E+00  0.000000E+00
  1.171875E+00  1.953125E+00  0.000000E+00
  1.171875E+00  2.343750E+00  0.000000E+00
  1.171875E+00  2.734375E+00  0.000000E+00
  1.171875E+00  3.125000E+00  0.000000E+00
  1.171875E+00  3.515625E+00  0.000000E+00
  1.171875E+00  3.906250E+00  0.000000E+00
  1.171875E+00  4.296875E+00  0.000000E+00
  1.171875E+00  4.687500E+00  0.000000E+00
  1.171875E+00  5.078125E+00  0.000000E+00
  1.171875E+00  5.468750E+00  0.000000E+00
  1.171875E+00  5.859375E+00  0.000000E+00
  1.171875E+00  6.250000E+00  0.000000E+00
  1.171875E+00  6.640625E+00  0.000000E+00
  1.171875E+00  7.031250E+00  0.000000E+00
  1.171875E+00  7.421875E+00  0.000000E+00
  1.171875E+00  7.812500E+00  0.000000E+00
  1.171875E+00  8.203125E+00  0.000000E+00
  1.171875E+00  8.593750E+00  0.000000E+00
  1.171875E+00  8.984375E+00  0.000000E+00
  1.171875E+00  9.375000E+00  0.000000E+00
  1.171875E+00  9.765625E+00  0.000000E+00
  1.171875E+00  1.015625E+01  0.000000E+00
  1.171875E+00  1.054688E+01  0.000000E+00
  1.171875E+00  1.093750E+01  0.000000E+00
  1.171875E+00  1.132812E+01  0.000000E+00
  1.171875E+00  1.171875E+01  0.000000E+00
  1.171875E+00  1.210938E+01  0.000000E+00
  1.171875E+00  1.250000E+01  0.000000E+00
  1.171875E+00  1.289062E+01  0.000000E+00
  1.171875E+00  1.328125E+01  0.000000E+00
  1.171875E+00  1.367188E+01  0.000000E+00
  1.171875E+00  1.406250E+01  0.000000E+00
  1.171875E+00  1.445312E+01  0.000000E+00
[...]
POINT_DATA   4096
SCALARS CON  float  1
LOOKUP_TABLE default
  4.694988E-01
  4.687237E-01
  4.715145E-01
  4.699697E-01
  4.716646E-01
  4.692149E-01
  4.705230E-01
  4.682114E-01
  4.699287E-01
  4.679786E-01
  4.698289E-01
  4.678276E-01
  4.696424E-01
  4.678127E-01
  4.700440E-01
  4.687237E-01
  4.712995E-01
  4.699375E-01
  4.720134E-01
  4.697981E-01
  4.708953E-01
  4.678385E-01
  4.684477E-01
  4.653743E-01
  4.664335E-01
  4.641459E-01
  4.660979E-01
  4.645527E-01
  4.669087E-01
  4.653953E-01
  4.675467E-01
  4.658186E-01
  4.679273E-01
  4.663558E-01
  4.686774E-01
  4.671550E-01
  4.692062E-01
  4.671006E-01
  4.684245E-01
  4.656915E-01
  4.666965E-01
  4.640584E-01
  4.655686E-01
  4.637627E-01
  4.662913E-01
  4.654912E-01
  4.687607E-01
  4.681831E-01
  4.710112E-01
  4.694089E-01
  4.709760E-01
  4.683867E-01
  4.696876E-01
  4.676939E-01
  4.701724E-01
  4.693400E-01
  4.723322E-01
  4.710254E-01
  4.726926E-01
  4.697716E-01
  4.702514E-01
  4.670964E-01
  4.683867E-01
  4.667111E-01
  4.714035E-01
  4.710491E-01
  4.726590E-01
  4.712072E-01
  4.715156E-01
  4.690943E-01
  4.691406E-01
  4.672132E-01
  4.682272E-01
  4.672890E-01
  4.689297E-01
  4.681230E-01
  4.695492E-01
  4.684857E-01
  4.698692E-01
  4.690330E-01
  4.707485E-01
  4.700741E-01
  4.715646E-01
  4.702469E-01
  4.708486E-01
  4.686865E-01
  4.687628E-01
  4.665482E-01
  4.670413E-01
  4.655794E-01
  4.669562E-01
  4.662893E-01
  4.681828E-01
  4.676349E-01
  4.692361E-01
  4.680938E-01
  4.690076E-01
  4.673214E-01
  4.680008E-01
  4.664112E-01
  4.673878E-01
  4.660837E-01
  4.671539E-01
  4.656998E-01
  4.664834E-01
  4.648191E-01
  4.656825E-01
  4.644942E-01
  4.661652E-01
  4.658883E-01
  4.682606E-01
  4.682003E-01
  4.701994E-01
  4.693192E-01
  4.704149E-01
  4.689819E-01
  4.701651E-01
  4.694321E-01
  4.715633E-01
  4.714925E-01
  4.735723E-01
  4.726468E-01
  4.733751E-01
  4.711572E-01
  4.711897E-01
  4.691456E-01
  4.701179E-01
  4.693577E-01
  4.678742E-01
  4.690679E-01
  4.705541E-01
  4.707939E-01
  4.708069E-01
  4.697290E-01
  4.690889E-01
  4.681531E-01
  4.682016E-01
  4.680619E-01
  4.686433E-01
  4.686487E-01
  4.691190E-01
  4.690089E-01
  4.695464E-01
  4.696909E-01
  4.704989E-01
  4.706912E-01
  4.711572E-01
  4.706120E-01
  4.701077E-01
  4.686241E-01
  4.674820E-01
  4.658444E-01
  4.650735E-01
  4.642215E-01
  4.644235E-01
  4.644658E-01
  4.652749E-01
  4.655618E-01
  4.663272E-01
  4.664477E-01
  4.670774E-01
  4.671430E-01
  4.677239E-01
  4.676065E-01
  4.677671E-01
  4.670086E-01
  4.664557E-01
  4.651345E-01
  4.643771E-01
  4.633255E-01
  4.633044E-01
  4.633313E-01
  4.645156E-01
  4.656040E-01
  4.674295E-01
  4.685338E-01
  4.697088E-01
  4.696866E-01
  4.696641E-01
  4.688604E-01
  4.688267E-01
  4.688064E-01
  4.699833E-01
  4.709752E-01
  4.723683E-01
  4.725136E-01
  4.722212E-01
  4.704834E-01
  4.688902E-01
  4.669976E-01
  4.664831E-01
  4.664699E-01
  4.693456E-01
  4.709643E-01
  4.710010E-01
  4.713867E-01
  4.698719E-01
  4.690144E-01
  4.670645E-01
  4.667273E-01
  4.659871E-01
  4.670119E-01
  4.672510E-01
  4.685961E-01
  4.685809E-01
  4.694446E-01
  4.691023E-01
  4.699850E-01
  4.699170E-01
  4.710357E-01
  4.708607E-01
  4.713976E-01
  4.702831E-01
  4.698242E-01
  4.679922E-01
  4.673166E-01
  4.658100E-01
  4.658820E-01
  4.653336E-01
  4.663418E-01
  4.665010E-01
  4.678380E-01
  4.678860E-01
  4.687296E-01
  4.680793E-01
  4.682648E-01
  4.672104E-01
  4.673287E-01
  4.664588E-01
  4.668154E-01
  4.660478E-01
  4.663064E-01
  4.653426E-01
  4.655146E-01
  4.647628E-01
  4.654983E-01
  4.655331E-01
  4.670156E-01
  4.674728E-01
  4.688739E-01
  4.687642E-01
  4.693435E-01
  4.685222E-01
  4.688468E-01
  4.683837E-01
  4.695410E-01
  4.699853E-01
  4.716382E-01
  4.718323E-01
  4.724853E-01
  4.712762E-01
  4.706688E-01
  4.688470E-01
  4.685224E-01
  4.677689E-01
  4.688760E-01
  4.657492E-01
  4.685512E-01
  4.684926E-01
  4.703447E-01
  4.687792E-01
  4.692401E-01
  4.669543E-01
  4.675621E-01
  4.660799E-01
  4.676870E-01
  4.669512E-01
  4.688355E-01
  4.679876E-01
  4.696410E-01
  4.687074E-01
  4.705109E-01
  4.698343E-01
  4.717386E-01
  4.707667E-01
  4.719025E-01
  4.698258E-01
  4.698192E-01
  4.669027E-01
  4.666092E-01
  4.640318E-01
  4.645836E-01
  4.631002E-01
  4.646996E-01
  4.639898E-01
  4.659985E-01
  4.653859E-01
  4.673164E-01
  4.665812E-01
  4.683951E-01
  4.675009E-01
  4.690133E-01
  4.676075E-01
  4.684334E-01
  4.663186E-01
  4.666326E-01
  4.644006E-01
  4.650845E-01
  4.636549E-01
  4.653860E-01
  4.649829E-01
  4.674499E-01
  4.672897E-01
  4.694297E-01
  4.684585E-01
  4.695523E-01
  4.676579E-01
  4.683055E-01
  4.666448E-01
  4.681404E-01
  4.675913E-01
  4.699446E-01
  4.695349E-01
  4.711232E-01
  4.692543E-01
  4.692369E-01
  4.662789E-01
  4.661796E-01
  4.642383E-01
  4.658881E-01
  4.674941E-01
  4.700615E-01
  4.689100E-01
  4.704555E-01
  4.679789E-01
  4.684219E-01
  4.655302E-01
  4.664275E-01
  4.646626E-01
  4.668777E-01
  4.660992E-01
  4.686676E-01
  4.676607E-01
  4.697549E-01
  4.684251E-01
  4.705625E-01
  4.695532E-01
  4.719630E-01
  4.708232E-01
  4.725353E-01
  4.702601E-01
  4.707597E-01
  4.676081E-01
  4.678461E-01
  4.650953E-01
  4.662352E-01
  4.646155E-01
  4.668366E-01
  4.660254E-01
  4.686413E-01
  4.677639E-01
  4.699134E-01
  4.683385E-01
  4.697952E-01
  4.677469E-01
  4.690475E-01
  4.670990E-01
  4.685822E-01
  4.667292E-01
  4.681645E-01
  4.662105E-01
  4.676600E-01
  4.659597E-01
  4.678868E-01
  4.667236E-01
  4.690136E-01
  4.678543E-01
  4.697483E-01
  4.679233E-01
  4.691380E-01
  4.669038E-01
  4.681740E-01
  4.664723E-01
  4.685559E-01
  4.676098E-01
  4.700502E-01
  4.688754E-01
  4.705613E-01
  4.683918E-01
  4.692331E-01
  4.667031E-01
  4.678170E-01
  4.661052E-01
  4.682893E-01
  4.643476E-01
  4.673330E-01
  4.666677E-01
  4.691382E-01
  4.674343E-01
  4.688316E-01
  4.664739E-01
  4.678461E-01
  4.659838E-01
  4.680425E-01
  4.667091E-01
  4.689610E-01
  4.675502E-01
  4.696835E-01
  4.683333E-01
  4.707603E-01
  4.697730E-01
  4.723339E-01
  4.709876E-01
  4.726242E-01
  4.699706E-01
  4.702921E-01
  4.667303E-01
  4.668359E-01
  4.637988E-01
  4.649764E-01
  4.632161E-01
  4.655251E-01
  4.645210E-01
  4.671623E-01
  4.661737E-01
  4.686874E-01
  4.675620E-01
  4.699556E-01
  4.686488E-01
  4.706853E-01
  4.687884E-01
  4.700683E-01
  4.674378E-01
  4.682488E-01
  4.656020E-01
  4.668937E-01
  4.650973E-01
  4.673553E-01
  4.663532E-01
  4.690090E-01
  4.679107E-01
  4.700225E-01
  4.680991E-01
  4.693469E-01
  4.667809E-01
  4.678170E-01
  4.655581E-01
  4.673336E-01
  4.659856E-01
  4.684825E-01
  4.673400E-01
  4.693805E-01
  4.672398E-01
  4.681045E-01
  4.650854E-01
  4.657604E-01
  4.633747E-01
  4.653093E-01
  4.665254E-01
  4.686297E-01
  4.674776E-01
  4.691730E-01
  4.673298E-01
  4.683449E-01
  4.661558E-01
  4.673437E-01
  4.657792E-01
  4.677502E-01
  4.667697E-01
  4.689099E-01
  4.677324E-01
  4.695806E-01
  4.683252E-01
  4.704436E-01
  4.696593E-01
  4.720936E-01
  4.711148E-01
  4.727129E-01
  4.704492E-01
  4.707507E-01
  4.676500E-01
  4.678618E-01
  4.654148E-01
  4.667675E-01
  4.655811E-01
  4.679851E-01
  4.674379E-01
  4.700047E-01
  4.691898E-01
  4.711823E-01
  4.696626E-01
  4.710123E-01
  4.690639E-01
  4.702526E-01
  4.683463E-01
  4.696433E-01
  4.677935E-01
  4.690746E-01
  4.672215E-01
  4.686323E-01
  4.670962E-01
  4.689399E-01
  4.677798E-01
  4.697593E-01
  4.684021E-01
  4.699009E-01
  4.679512E-01
  4.689691E-01
  4.668365E-01
  4.680472E-01
  4.664202E-01
  4.682640E-01
  4.671577E-01
  4.692113E-01
  4.679296E-01
  4.695001E-01
  4.676162E-01
  4.686818E-01
  4.665538E-01
  4.677051E-01
  4.659632E-01
  4.676869E-01
  4.636860E-01
  4.658429E-01
  4.656051E-01
  4.679370E-01
  4.673476E-01
  4.690477E-01
  4.678483E-01
  4.691689E-01
  4.678538E-01
  4.692074E-01
  4.679217E-01
  4.692333E-01
  4.679012E-01
  4.693110E-01
  4.683293E-01
  4.702940E-01
  4.698441E-01
  4.720002E-01
  4.711563E-01
  4.723077E-01
  4.700937E-01
  4.699442E-01
  4.669462E-01
  4.668012E-01
  4.645784E-01
  4.656886E-01
  4.647709E-01
  4.668524E-01
  4.663845E-01
  4.684481E-01
  4.677188E-01
  4.695275E-01
  4.686878E-01
  4.704954E-01
  4.695969E-01
  4.711066E-01
  4.696001E-01
  4.702959E-01
  4.680188E-01
  4.682717E-01
  4.660661E-01
  4.669058E-01
  4.656162E-01
  4.674081E-01
  4.668247E-01
  4.689026E-01
  4.681575E-01
  4.697251E-01
  4.682937E-01
  4.691923E-01
  4.672845E-01
  4.680274E-01
  4.663346E-01
  4.676060E-01
  4.665835E-01
  4.684168E-01
  4.676013E-01
  4.691447E-01
  4.675810E-01
  4.681453E-01
  4.657177E-01
  4.658714E-01
  4.636802E-01
  4.646811E-01
  4.660684E-01
  4.672979E-01
  4.667146E-01
  4.681690E-01
  4.675144E-01
  4.686771E-01
  4.676931E-01
  4.686689E-01
  4.677046E-01
  4.688203E-01
  4.679535E-01
  4.690187E-01
  4.680020E-01
  4.690028E-01
  4.681965E-01
  4.697155E-01
  4.695353E-01
  4.714301E-01
  4.710535E-01
  4.720968E-01
  4.704530E-01
  4.702821E-01
  4.679547E-01
  4.678909E-01
  4.663958E-01
  4.675547E-01
  4.672418E-01
  4.692000E-01
  4.691545E-01
  4.708915E-01
  4.702985E-01
  4.713589E-01
  4.701341E-01
  4.707287E-01
  4.692581E-01
  4.698062E-01
  4.684063E-01
  4.690419E-01
  4.676859E-01
  4.683399E-01
  4.670584E-01
  4.679244E-01
  4.670021E-01
  4.682834E-01
  4.676800E-01
  4.690507E-01
  4.682656E-01
  4.692567E-01
  4.680480E-01
  4.687406E-01
  4.674771E-01
  4.683837E-01
  4.675250E-01
  4.688726E-01
  4.683175E-01
  4.697085E-01
  4.689149E-01
  4.698667E-01
  4.685707E-01
  4.690864E-01
  4.675013E-01
  4.679096E-01
  4.664126E-01
  4.671081E-01
  4.634489E-01
  4.649157E-01
  4.651294E-01
  4.672185E-01
  4.675342E-01
  4.692840E-01
  4.690000E-01
  4.700824E-01
  4.691961E-01
  4.697969E-01
  4.685643E-01
  4.689805E-01
  4.677863E-01
  4.685279E-01
  4.679410E-01
  4.694373E-01
  4.694923E-01
  4.712185E-01
  4.708905E-01
  4.716372E-01
  4.700000E-01
  4.695427E-01
  4.672378E-01
  4.668920E-01
  4.654221E-01
  4.663027E-01
  4.659912E-01
  4.675818E-01
  4.673929E-01
  4.686574E-01
  4.680071E-01
  4.689772E-01
  4.683273E-01
  4.694914E-01
  4.689763E-01
  4.699736E-01
  4.689091E-01
  4.691129E-01
  4.673060E-01
  4.671256E-01
  4.654644E-01
  4.659216E-01
  4.651707E-01
  4.665165E-01
  4.663857E-01
  4.679628E-01
  4.676912E-01
  4.688659E-01
  4.680768E-01
  4.687606E-01
  4.676262E-01
  4.681976E-01
  4.672209E-01
  4.681802E-01
  4.676912E-01
  4.690389E-01
  4.686352E-01
  4.696416E-01
  4.684936E-01
  4.685374E-01
  4.665028E-01
  4.660392E-01
  4.640784E-01
  4.642937E-01
  4.661894E-01
  4.669851E-01
  4.666096E-01
  4.677991E-01
  4.675842E-01
  4.686669E-01
  4.681581E-01
  4.689013E-01
  4.681224E-01
  4.686954E-01
  4.678082E-01
  4.683014E-01
  4.674001E-01
  4.680509E-01
  4.675699E-01
  4.688693E-01
  4.690559E-01
  4.707226E-01
  4.707076E-01
  4.715528E-01
  4.703319E-01
  4.700261E-01
  4.681530E-01
  4.679346E-01
  4.668206E-01
  4.677054E-01
  4.676172E-01
  4.691219E-01
  4.691256E-01
  4.702760E-01
  4.696801E-01
  4.702001E-01
  4.690982E-01
  4.693103E-01
  4.680999E-01
  4.683546E-01
  4.672657E-01
  4.676541E-01
  4.666794E-01
  4.671790E-01
  4.663595E-01
  4.670931E-01
  4.665684E-01
  4.675785E-01
  4.672090E-01
  4.681844E-01
  4.675992E-01
  4.682677E-01
  4.674177E-01
  4.679852E-01
  4.672594E-01
  4.681512E-01
  4.678416E-01
  4.690839E-01
  4.689112E-01
  4.700018E-01
  4.694225E-01
  4.699785E-01
  4.688925E-01
  4.690812E-01
  4.678001E-01
  4.679411E-01
  4.667308E-01
  4.670646E-01
  4.641093E-01
  4.653152E-01
  4.655240E-01
  4.672146E-01
  4.675321E-01
  4.689768E-01
  4.687830E-01
  4.695747E-01
  4.687139E-01
  4.689385E-01
  4.677062E-01
  4.678312E-01
  4.668188E-01
  4.674778E-01
  4.672254E-01
  4.686890E-01
  4.690387E-01
  4.706612E-01
  4.705876E-01
  4.712453E-01
  4.699060E-01
  4.693752E-01
  4.673085E-01
  4.667466E-01
  4.653251E-01
  4.658094E-01
  4.654241E-01
  4.665767E-01
  4.663488E-01
  4.672684E-01
  4.667065E-01
  4.674671E-01
  4.670212E-01
  4.680482E-01
  4.677597E-01
  4.686110E-01
  4.677714E-01
  4.678725E-01
  4.663904E-01
  4.662355E-01
  4.649966E-01
  4.654856E-01
  4.650425E-01
  4.662032E-01
  4.661223E-01
  4.672951E-01
  4.669607E-01
  4.677594E-01
  4.670681E-01
  4.676216E-01
  4.668438E-01
  4.674796E-01
  4.669312E-01
  4.678825E-01
  4.676313E-01
  4.687300E-01
  4.683605E-01
  4.690300E-01
  4.679842E-01
  4.678996E-01
  4.662457E-01
  4.658988E-01
  4.644319E-01
  4.646932E-01
  4.675009E-01
  4.680318E-01
  4.675756E-01
  4.681015E-01
  4.676323E-01
  4.680857E-01
  4.674771E-01
  4.677663E-01
  4.670273E-01
  4.672567E-01
  4.665335E-01
  4.668530E-01
  4.663183E-01
  4.669721E-01
  4.669415E-01
  4.682075E-01
  4.687219E-01
  4.702232E-01
  4.704662E-01
  4.711581E-01
  4.702428E-01
  4.697846E-01
  4.681077E-01
  4.675146E-01
  4.663263E-01
  4.666169E-01
  4.663711E-01
  4.673678E-01
  4.674416E-01
  4.683833E-01
  4.681454E-01
  4.686634E-01
  4.680059E-01
  4.681811E-01
  4.672967E-01
  4.673783E-01
  4.665319E-01
  4.667626E-01
  4.661439E-01
  4.666456E-01
  4.663058E-01
  4.670518E-01
  4.668660E-01
  4.676161E-01
  4.672508E-01
  4.676647E-01
  4.669054E-01
  4.670131E-01
  4.661722E-01
  4.664915E-01
  4.661203E-01
  4.670314E-01
  4.671785E-01
  4.683467E-01
  4.683829E-01
  4.690985E-01
  4.685007E-01
  4.686334E-01
  4.677074E-01
  4.678472E-01
  4.671911E-01
  4.676894E-01
  4.673074E-01
  4.679129E-01
  4.660248E-01
  4.667784E-01
  4.669871E-01
  4.676725E-01
  4.677147E-01
  4.681654E-01
  4.679100E-01
  4.680047E-01
  4.673705E-01
  4.671447E-01
  4.663579E-01
  4.662425E-01
  4.658638E-01
  4.664016E-01
  4.667840E-01
  4.680011E-01
  4.687886E-01
  4.699909E-01
  4.702857E-01
  4.705742E-01
  4.697103E-01
  4.688651E-01
  4.671893E-01
  4.660780E-01
  4.647392E-01
  4.644212E-01
  4.640373E-01
  4.645287E-01
  4.646318E-01
  4.653078E-01
  4.654580E-01
  4.662156E-01
  4.665299E-01
  4.674220E-01
  4.676518E-01
  4.681180E-01
  4.676349E-01
  4.673336E-01
  4.663276E-01
  4.659588E-01
  4.653531E-01
  4.656617E-01
  4.657143E-01
  4.664019E-01
  4.664424E-01
  4.667950E-01
  4.663709E-01
  4.663472E-01
  4.657837E-01
  4.658890E-01
  4.656497E-01
  4.661468E-01
  4.662403E-01
  4.669221E-01
  4.670103E-01
  4.674968E-01
  4.672355E-01
  4.672899E-01
  4.666185E-01
  4.664025E-01
  4.656930E-01
  4.656966E-01
  4.654039E-01
  4.658958E-01
  4.697885E-01
  4.695687E-01
  4.692957E-01
  4.685032E-01
  4.679304E-01
  4.670821E-01
  4.666164E-01
  4.659609E-01
  4.657271E-01
  4.653245E-01
  4.653622E-01
  4.652548E-01
  4.656221E-01
  4.658896E-01
  4.666701E-01
  4.673404E-01
  4.684129E-01
  4.691330E-01
  4.699047E-01
  4.699540E-01
  4.697939E-01
  4.688728E-01
  4.679679E-01
  4.667330E-01
  4.660125E-01
  4.653713E-01
  4.654567E-01
  4.656138E-01
  4.663204E-01
  4.668320E-01
  4.676055E-01
  4.679190E-01
  4.682825E-01
  4.680615E-01
  4.678881E-01
  4.672638E-01
  4.669292E-01
  4.664259E-01
  4.664516E-01
  4.664367E-01
  4.669338E-01
  4.672306E-01
  4.677692E-01
  4.677892E-01
  4.677743E-01
  4.671056E-01
  4.664846E-01
  4.655190E-01
  4.650575E-01
  4.647058E-01
  4.651451E-01
  4.656988E-01
  4.667493E-01
  4.674149E-01
  4.680484E-01
  4.679338E-01
  4.677317E-01
  4.670612E-01
  4.668090E-01
  4.666128E-01
  4.671581E-01
  4.677482E-01
  4.687489E-01
  4.692943E-01
  4.683146E-01
  4.680349E-01
  4.686217E-01
  4.678252E-01
  4.680244E-01
  4.670284E-01
  4.671700E-01
  4.661648E-01
  4.662860E-01
  4.652712E-01
  4.654815E-01
  4.647432E-01
  4.654368E-01
  4.653084E-01
  4.665879E-01
  4.668657E-01
  4.682702E-01
  4.683669E-01
  4.693181E-01
  4.687536E-01
  4.689196E-01
  4.675613E-01
  4.670787E-01
  4.653793E-01
  4.649680E-01
  4.637365E-01
  4.640448E-01
  4.635774E-01
  4.645283E-01
  4.645266E-01
  4.658070E-01
  4.660512E-01
  4.674741E-01
  4.676527E-01
  4.686892E-01
  4.681519E-01
  4.683030E-01
  4.669993E-01
  4.667888E-01
  4.656629E-01
  4.660736E-01
  4.657222E-01
  4.667098E-01
  4.664880E-01
  4.671191E-01
  4.662356E-01
  4.662087E-01
  4.649652E-01
  4.650302E-01
  4.642901E-01
  4.650718E-01
  4.650045E-01
  4.662070E-01
  4.662179E-01
  4.671889E-01
  4.667735E-01
  4.672657E-01
  4.664511E-01
  4.667281E-01
  4.659461E-01
  4.665078E-01
  4.661868E-01
  4.672333E-01
  4.672377E-01
  4.716733E-01
  4.702972E-01
  4.705144E-01
  4.683287E-01
  4.681384E-01
  4.659489E-01
  4.660570E-01
  4.643320E-01
  4.649568E-01
  4.637329E-01
  4.648139E-01
  4.639905E-01
  4.654084E-01
  4.648500E-01
  4.664553E-01
  4.660045E-01
  4.676341E-01
  4.671116E-01
  4.685517E-01
  4.677062E-01
  4.687048E-01
  4.673632E-01
  4.679187E-01
  4.663050E-01
  4.668432E-01
  4.654831E-01
  4.664904E-01
  4.657108E-01
  4.672862E-01
  4.669404E-01
  4.687081E-01
  4.682388E-01
  4.695575E-01
  4.683973E-01
  4.689606E-01
  4.672049E-01
  4.675237E-01
  4.659564E-01
  4.668357E-01
  4.660195E-01
  4.675988E-01
  4.672022E-01
  4.687651E-01
  4.678808E-01
  4.685945E-01
  4.667421E-01
  4.666842E-01
  4.645419E-01
  4.648199E-01
  4.635734E-01
  4.650428E-01
  4.649134E-01
  4.670847E-01
  4.670520E-01
  4.687395E-01
  4.678677E-01
  4.687025E-01
  4.672984E-01
  4.681237E-01
  4.672252E-01
  4.688536E-01
  4.687122E-01
  4.707196E-01
  4.703916E-01
  4.694669E-01
  4.681807E-01
  4.692131E-01
  4.674156E-01
  4.680788E-01
  4.661420E-01
  4.668604E-01
  4.650648E-01
  4.659203E-01
  4.642495E-01
  4.652831E-01
  4.639162E-01
  4.653829E-01
  4.644867E-01
  4.663195E-01
  4.655739E-01
  4.673244E-01
  4.663372E-01
  4.677919E-01
  4.665219E-01
  4.677113E-01
  4.661700E-01
  4.670892E-01
  4.653433E-01
  4.662128E-01
  4.646217E-01
  4.658185E-01
  4.646333E-01
  4.662215E-01
  4.653721E-01
  4.672459E-01
  4.666264E-01
  4.686064E-01
  4.678507E-01
  4.693637E-01
  4.678501E-01
  4.685207E-01
  4.663873E-01
  4.669244E-01
  4.652207E-01
  4.665815E-01
  4.657434E-01
  4.676336E-01
  4.667577E-01
  4.680632E-01
  4.663139E-01
  4.668327E-01
  4.647076E-01
  4.654003E-01
  4.639109E-01
  4.654510E-01
  4.647365E-01
  4.667798E-01
  4.662377E-01
  4.681789E-01
  4.673621E-01
  4.689450E-01
  4.677494E-01
  4.689923E-01
  4.675703E-01
  4.687718E-01
  4.675090E-01
  4.689893E-01
  4.679618E-01
  4.719360E-01
  4.700063E-01
  4.704339E-01
  4.679123E-01
  4.680631E-01
  4.656033E-01
  4.660831E-01
  4.641018E-01
  4.650984E-01
  4.635994E-01
  4.650101E-01
  4.638442E-01
  4.654971E-01
  4.644719E-01
  4.661638E-01
  4.650985E-01
  4.667150E-01
  4.655852E-01
  4.671726E-01
  4.660398E-01
  4.676183E-01
  4.664424E-01
  4.679424E-01
  4.666816E-01
  4.681326E-01
  4.668924E-01
  4.684440E-01
  4.673687E-01
  4.691088E-01
  4.681784E-01
  4.699305E-01
  4.687939E-01
  4.700867E-01
  4.682991E-01
  4.689168E-01
  4.666555E-01
  4.671947E-01
  4.653248E-01
  4.666416E-01
  4.657180E-01
  4.678697E-01
  4.674130E-01
  4.695048E-01
  4.684504E-01
  4.695593E-01
  4.674221E-01
  4.676868E-01
  4.652225E-01
  4.657921E-01
  4.641714E-01
  4.658605E-01
  4.653064E-01
  4.677327E-01
  4.674461E-01
  4.696882E-01
  4.689097E-01
  4.705607E-01
  4.692962E-01
  4.707065E-01
  4.694812E-01
  4.711283E-01
  4.701662E-01
  4.719079E-01
  4.707336E-01
  4.688833E-01
  4.677103E-01
  4.685535E-01
  4.672303E-01
  4.679249E-01
  4.665471E-01
  4.672736E-01
  4.659349E-01
  4.666406E-01
  4.652345E-01
  4.659184E-01
  4.646386E-01
  4.656245E-01
  4.647403E-01
  4.660672E-01
  4.653455E-01
  4.666300E-01
  4.657391E-01
  4.668477E-01
  4.658555E-01
  4.669416E-01
  4.659577E-01
  4.670409E-01
  4.660446E-01
  4.671379E-01
  4.661912E-01
  4.673483E-01
  4.664320E-01
  4.675672E-01
  4.666171E-01
  4.677781E-01
  4.669442E-01
  4.682458E-01
  4.674310E-01
  4.684977E-01
  4.671860E-01
  4.676584E-01
  4.659323E-01
  4.664180E-01
  4.652057E-01
  4.665425E-01
  4.661816E-01
  4.680144E-01
  4.675884E-01
  4.688335E-01
  4.675543E-01
  4.680279E-01
  4.663351E-01
  4.668475E-01