# vtk DataFile Version 2.0
title
ASCII
DATASET STRUCTURED_GRID
DIMENSIONS   64   64    1
POINTS   4096  float
  0.000000E+00  0.000000E+00  0.000000E+00
  0.000000E+00  3.906250E-01  0.000000E+00
  0.000000E+00  7.812500E-01  0.000000E+00
  0.000000E+00  1.171875E+00  0.000000E+00
  0.000000E+00  1.562500E+00  0.000000E+00
  0.000000E+00  1.953125E+00  0.000000E+00
  0.000000E+00  2.343750E+00  0.000000E+00
  0.000000E+00  2.734375E+00  0.000000E+00
  0.000000E+00  3.125000E+00  0.000000E+00
  0.000000E+00  3.515625E+00  0.000000E+00
  0.000000E+00  3.906250E+00  0.000000E+00
  0.000000E+00  4.296875E+00  0.000000E+00
  0.000000E+00  4.687500E+00  0.000000E+00
  0.000000E+00  5.078125E+00  0.000000E+00
  0.000000E+00  5.468750E+00  0.000000E+00
  0.000000E+00  5.859375E+00  0.000000E+00
  0.000000E+00  6.250000E+00  0.000000E+00
  0.000000E+00  6.640625E+00  0.000000E+00
  0.000000E+00  7.031250E+00  0.000000E+00
  0.000000E+00  7.421875E+00  0.000000E+00
  0.000000E+00  7.812500E+00  0.000000E+00
  0.000000E+00  8.203125E+00  0.000000E+00
  0.000000E+00  8.593750E+00  0.000000E+00
  0.000000E+00  8.984375E+00  0.000000E+00
  0.000000E+00  9.375000E+00  0.000000E+00
  0.000000E+00  9.765625E+00  0.000000E+00
  0.000000E+00  1.015625E+01  0.000000E+00
  0.000000E+00  1.054688E+01  0.000000E+00
  0.000000E+00  1.093750E+01  0.000000E+00
  0.000000E+00  1.132812E+01  0.000000E+00
  0.000000E+00  1.171875E+01  0.000000E+00
  0.000000E+00  1.210938E+01  0.000000E+00
  0.000000E+00  1.250000E+01  0.000000E+00
  0.000000E+00  1.289062E+01  0.000000E+00
  0.000000E+00  1.328125E+01  0.000000E+00
  0.000000E+00  1.367188E+01  0.000000E+00
  0.000000E+00  1.406250E+01  0.000000E+00
  0.000000E+00  1.445312E+01  0.000000E+00
  0.000000E+00  1.484375E+01  0.000000E+00
  0.000000E+00  1.523438E+01  0.000000E+00
  0.000000E+00  1.562500E+01  0.000000E+00
  0.000000E+00  1.601562E+01  0.000000E+00
  0.000000E+00  1.640625E+01  0.000000E+00
  0.000000E+00  1.679688E+01  0.000000E+00
  0.000000E+00  1.718750E+01  0.000000E+00
  0.000000E+00  1.757812E+01  0.000000E+00
  0.000000E+00  1.796875E+01  0.000000E+00
  0.000000E+00  1.835938E+01  0.000000E+00
  0.000000E+00  1.875000E+01  0.000000E+00
  0.000000E+00  1.914062E+01  0.000000E+00
  0.000000E+00  1.953125E+01  0.000000E+00
  0.000000E+00  1.992188E+01  0.000000E+00
  0.000000E+00  2.031250E+01  0.000000E+00
  0.000000E+00  2.070312E+01  0.000000E+00
  0.000000E+00  2.109375E+01  0.000000E+00
  0.000000E+00  2.148438E+01  0.000000E+00
  0.000000E+00  2.187500E+01  0.000000E+00
  0.000000E+00  2.226562E+01  0.000000E+00
  0.000000E+00  2.265625E+01  0.000000E+00
  0.000000E+00  2.304688E+01  0.000000E+00
  0.000000E+00  2.343750E+01  0.000000E+00
  0.000000E+00  2.382812E+01  0.000000E+00
  0.000000E+00  2.421875E+01  0.000000E+00
  0.000000E+00  2.460938E+01  0.000000E+00
  3.906250E-01  0.000000E+00  0.000000E+00
  3.906250E-01  3.906250E-01  0.000000E+00
  3.906250E-01  7.812500E-01  0.000000E+00
  3.906250E-01  1.171875E+00  0.000000E+00
  3.906250E-01  1.562500E+00  0.000000E+00
  3.906250E-01  1.953125E+00  0.000000E+00
  3.906250E-01  2.343750E+00  0.000000E+00
  3.906250E-01  2.734375E+00  0.000000E+00
  3.906250E-01  3.125000E+00  0.000000E+00
  3.906250E-01  3.515625E+00  0.000000E+00
  3.906250E-01  3.906250E+00  0.000000E+00
  3.906250E-01  4.296875E+00  0.000000E+00
  3.906250E-01  4.687500E+00  0.000000E+00
  3.906250E-01  5.078125E+00  0.000000E+00
  3.906250E-01  5.468750E+00  0.000000E+00
  3.906250E-01  5.859375E+00  0.000000E+00
  3.906250E-01  6.250000E+00  0.000000E+00
  3.906250E-01  6.640625E+00  0.000000E+00
  3.906250E-01  7.031250E+00  0.000000E+00
  3.906250E-01  7.421875E+00  0.000000E+00
  3.906250E-01  7.812500E+00  0.000000E+00
  3.906250E-01  8.203125E+00  0.000000E+00
  3.906250E-01  8.593750E+00  0.000000E+00
  3.906250E-01  8.984375E+00  0.000000E+00
  3.906250E-01  9.375000E+00  0.000000E+00
  3.906250E-01  9.765625E+00  0.000000E+00
  3.906250E-01  1.015625E+01  0.000000E+00
  3.906250E-01  1.054688E+01  0.000000E+00
  3.906250E-01  1.093750E+01  0.000000E+00
  3.906250E-01  1.132812E+01  0.000000E+00
  3.906250E-01  1.171875E+01  0.000000E+00
  3.906250E-01  1.210938E+01  0.000000E+00
  3.906250E-01  1.250000E+01  0.000000E+00
  3.906250E-01  1.289062E+01  0.000000E+00
  3.906250E-01  1.328125E+01  0.000000E+00
  3.906250E-01  1.367188E+01  0.000000E+00
  3.906250E-01  1.406250E+01  0.000000E+00
  3.906250E-01  1.445312E+01  0.000000E+00
  3.906250E-01  1.484375E+01  0.000000E+00
  3.906250E-01  1.523438E+01  0.000000E+00
  3.906250E-01  1.562500E+01  0.000000E+00
  3.906250E-01  1.601562E+01  0.000000E+00
  3.906250E-01  1.640625E+01  0.000000E+00
  3.906250E-01  1.679688E+01  0.000000E+00
  3.906250E-01  1.718750E+01  0.000000E+00
  3.906250E-01  1.757812E+01  0.000000E+00
  3.906250E-01  1.796875E+01  0.000000E+00
  3.906250E-01  1.835938E+01  0.000000E+00
  3.906250E-01  1.875000E+01  0.000000E+00
  3.906250E-01  1.914062E+01  0.000000E+00
  3.906250E-01  1.953125E+01  0.000000E+00
  3.906250E-01  1.992188E+01  0.000000E+00
  3.906250E-01  2.031250E+01  0.000000E+00
  3.906250E-01  2.070312E+01  0.000000E+00
  3.906250E-01  2.109375E+01  0.000000E+00
  3.906250E-01  2.148438E+01  0.000000E+00
  3.906250E-01  2.187500E+01  0.000000E+00
  3.906250E-01  2.226562E+01  0.000000E+00
  3.906250E-01  2.265625E+01  0.000000E+00
  3.906250E-01  2.304688E+01  0.000000E+00
  3.906250E-01  2.343750E+01  0.000000E+00
  3.906250E-01  2.382812E+01  0.000000E+00
  3.906250E-01  2.421875E+01  0.000000E+00
  3.906250E-01  2.460938E+01  0.000000E+00
  7.812500E-01  0.000000E+00  0.000000E+00
  7.812500E-01  3.906250E-01  0.000000E+00
  7.812500E-01  7.812500E-01  0.000000E+00
  7.812500E-01  1.171875E+00  0.000000E+00
  7.812500E-01  1.562500E+00  0.000000E+00
  7.812500E-01  1.953125E+00  0.000000E+00
  7.812500E-01  2.343750E+00  0.000000E+00
  7.812500E-01  2.734375E+00  0.000000E+00
  7.812500E-01  3.125000E+00  0.000000E+00
  7.812500E-01  3.515625E+00  0.000000E+00
  7.812500E-01  3.906250E+00  0.000000E+00
  7.812500E-01  4.296875E+00  0.000000E+00
  7.812500E-01  4.687500E+00  0.000000E+00
  7.812500E-01  5.078125E+00  0.000000E+00
  7.812500E-01  5.468750E+00  0.000000E+00
  7.812500E-01  5.859375E+00  0.000000E+00
  7.812500E-01  6.250000E+00  0.000000E+00
  7.812500E-01  6.640625E+00  0.000000E+00
  7.812500E-01  7.031250E+00  0.000000E+00
  7.812500E-01  7.421875E+00  0.000000E+00
  7.812500E-01  7.812500E+00  0.000000E+00
  7.812500E-01  8.203125E+00  0.000000E+00
  7.812500E-01  8.593750E+00  0.000000E+00
  7.812500E-01  8.984375E+00  0.000000E+00
  7.812500E-01  9.375000E+00  0.000000E+00
  7.812500E-01  9.765625E+00  0.000000E+00
  7.812500E-01  1.015625E+01  0.000000E+00
  7.812500E-01  1.054688E+01  0.000000E+00
  7.812500E-01  1.093750E+01  0.000000E+00
  7.812500E-01  1.132812E+01  0.000000E+00
  7.812500E-01  1.171875E+01  0.000000E+00
  7.812500E-01  1.210938E+01  0.000000E+00
  7.812500E-01  1.250000E+01  0.000000E+00
  7.812500E-01  1.289062E+01  0.000000E+00
  7.812500E-01  1.328125E+01  0.000000E+00
  7.812500E-01  1.367188E+01  0.000000E+00
  7.812500E-01  1.406250E+01  0.000000E+00
  7.812500E-01  1.445312E+01  0.000000E+00
  7.812500E-01  1.484375E+01  0.000000E+00
  7.812500E-01  1.523438E+01  0.000000E+00
  7.812500E-01  1.562500E+01  0.000000E+00
  7.812500E-01  1.601562E+01  0.000000E+00
  7.812500E-01  1.640625E+01  0.000000E+00
  7.812500E-01  1.679688E+01  0.000000E+00
  7.812500E-01  1.718750E+01  0.000000E+00
  7.812500E-01  1.757812E+01  0.000000E+00
  7.812500E-01  1.796875E+01  0.000000E+00
  7.812500E-01  1.835938E+01  0.000000E+00
  7.812500E-01  1.875000E+01  0.000000E+00
  7.812500E-01  1.914062E+01  0.000000E+00
  7.812500E-01  1.953125E+01  0.000000E+00
  7.812500E-01  1.992188E+01  0.000000E+00
  7.812500E-01  2.031250E+01  0.000000E+00
  7.812500E-01  2.070312E+01  0.000000E+00
  7.812500E-01  2.109375E+01  0.000000E+00
  7.812500E-01  2.148438E+01  0.000000E+00
  7.812500E-01  2.187500E+01  0.000000E+00
  7.812500E-01  2.226562E+01  0.000000E+00
  7.812500E-01  2.265625E+01  0.000000E+00
  7.812500E-01  2.304688E+01  0.000000E+00
  7.812500E-01  2.343750E+01  0.000000E+00
  7.812500E-01  2.382812E+01  0.000000E+00
  7.812500E-01  2.421875E+01  0.000000E+00
  7.812500E-01  2.460938E+01  0.000000E+00
  1.171875E+00  0.000000E+00  0.000000E+00
  1.171875E+00  3.906250E-01  0.000000E+00
  1.171875E+00  7.812500E-01  0.000000E+00
  1.171875E+00  1.171875E+00  0.000000E+00
  1.171875E+00  1.562500E+00  0.000000E+00
  1.171875E+00  1.953125E+00  0.000000E+00
  1.171875E+00  2.343750E+00  0.000000E+00
  1.171875E+00  2.734375E+00  0.000000E+00
  1.171875E+00  3.125000E+00  0.000000E+00
  1.171875E+00  3.515625E+00  0.000000E+00
  1.171875E+00  3.906250E+00  0.000000E+00
  1.171875E+00  4.296875E+00  0.000000E+00
  1.171875E+00  4.687500E+00  0.000000E+00
  1.171875E+00  5.078125E+00  0.000000E+00
  1.171875E+00  5.468750E+00  0.000000E+00
  1.171875E+00  5.859375E+00  0.000000E+00
  1.171875E+00  6.250000E+00  0.000000E+00
  1.171875E+00  6.640625E+00  0.000000E+00
  1.171875E+00  7.031250E+00  0.000000E+00
  1.171875E+00  7.421875E+00  0.000000E+00
  1.171875E+00  7.812500E+00  0.000000E+00
  1.171875E+00  8.203125E+00  0.000000E+00
  1.171875E+00  8.593750E+00  0.000000E+00
  1.171875E+00  8.984375E+00  0.000000E+00
  1.171875E+00  9.375000E+00  0.000000E+00
  1.171875E+00  9.765625E+00  0.000000E+00
  1.171875E+00  1.015625E+01  0.000000E+00
  1.171875E+00  1.054688E+01  0.000000E+00
  1.171875E+00  1.093750E+01  0.000000E+00
  1.171875E+00  1.132812E+01  0.000000E+00
  1.171875E+00  1.171875E+01  0.000000E+00
  1.171875E+00  1.210938E+01  0.000000E+00
  1.171875E+00  1.250000E+01  0.000000E+00
  1.171875E+00  1.289062E+01  0.000000E+00
  1.171875E+00  1.328125E+01  0.000000E+00
  1.171875E+00  1.367188E+01  0.000000E+00
  1.171875E+00  1.406250E+01  0.000000E+00
  1.171875E+00  1.445312E+01  0.000000E+00
[...]
POINT_DATA   4096
SCALARS CON  float  1
LOOKUP_TABLE default
  4.694969E-01
  4.685967E-01
  4.712229E-01
  4.697364E-01
  4.714683E-01
  4.691828E-01
  4.704911E-01
  4.682069E-01
  4.697881E-01
  4.678220E-01
  4.696112E-01
  4.677343E-01
  4.696019E-01
  4.679142E-01
  4.701145E-01
  4.688063E-01
  4.712501E-01
  4.698764E-01
  4.718724E-01
  4.697351E-01
  4.708370E-01
  4.679122E-01
  4.685430E-01
  4.655820E-01
  4.666044E-01
  4.643337E-01
  4.661359E-01
  4.645190E-01
  4.667070E-01
  4.651921E-01
  4.673038E-01
  4.656950E-01
  4.678165E-01
  4.663322E-01
  4.685883E-01
  4.670926E-01
  4.690795E-01
  4.670606E-01
  4.683984E-01
  4.658037E-01
  4.668309E-01
  4.643101E-01
  4.658140E-01
  4.640928E-01
  4.665576E-01
  4.657383E-01
  4.688059E-01
  4.680949E-01
  4.707083E-01
  4.691043E-01
  4.706968E-01
  4.683417E-01
  4.697664E-01
  4.678956E-01
  4.702183E-01
  4.692015E-01
  4.718686E-01
  4.704442E-01
  4.720646E-01
  4.693837E-01
  4.700859E-01
  4.672329E-01
  4.685863E-01
  4.669226E-01
  4.713735E-01
  4.708816E-01
  4.723138E-01
  4.708987E-01
  4.712529E-01
  4.690322E-01
  4.691491E-01
  4.673027E-01
  4.681967E-01
  4.671887E-01
  4.686815E-01
  4.679086E-01
  4.693556E-01
  4.684610E-01
  4.698963E-01
  4.691512E-01
  4.707885E-01
  4.701011E-01
  4.714880E-01
  4.702117E-01
  4.708002E-01
  4.687510E-01
  4.688338E-01
  4.667015E-01
  4.671448E-01
  4.657073E-01
  4.669844E-01
  4.662997E-01
  4.680619E-01
  4.674890E-01
  4.689941E-01
  4.679085E-01
  4.688320E-01
  4.672895E-01
  4.680074E-01
  4.665203E-01
  4.674500E-01
  4.661694E-01
  4.671661E-01
  4.657779E-01
  4.665780E-01
  4.650703E-01
  4.659918E-01
  4.649211E-01
  4.665289E-01
  4.661971E-01
  4.683415E-01
  4.681389E-01
  4.699513E-01
  4.690976E-01
  4.702335E-01
  4.689972E-01
  4.702330E-01
  4.695290E-01
  4.714467E-01
  4.711863E-01
  4.730087E-01
  4.720597E-01
  4.728317E-01
  4.708872E-01
  4.711286E-01
  4.693329E-01
  4.703247E-01
  4.695458E-01
  4.679635E-01
  4.688886E-01
  4.701646E-01
  4.703916E-01
  4.705194E-01
  4.696621E-01
  4.691758E-01
  4.683110E-01
  4.682775E-01
  4.680221E-01
  4.684745E-01
  4.684588E-01
  4.689627E-01
  4.689649E-01
  4.695771E-01
  4.697811E-01
  4.705644E-01
  4.707296E-01
  4.711340E-01
  4.705776E-01
  4.700590E-01
  4.686167E-01
  4.674985E-01
  4.659146E-01
  4.651497E-01
  4.643051E-01
  4.644521E-01
  4.644527E-01
  4.651974E-01
  4.654843E-01
  4.662610E-01
  4.664514E-01
  4.671176E-01
  4.672213E-01
  4.677729E-01
  4.676367E-01
  4.677555E-01
  4.670178E-01
  4.664941E-01
  4.652636E-01
  4.645797E-01
  4.636281E-01
  4.636543E-01
  4.637195E-01
  4.648527E-01
  4.658529E-01
  4.675042E-01
  4.684527E-01
  4.694907E-01
  4.694650E-01
  4.695207E-01
  4.688893E-01
  4.689678E-01
  4.689721E-01
  4.699892E-01
  4.707443E-01
  4.718719E-01
  4.719061E-01
  4.716675E-01
  4.701952E-01
  4.689202E-01
  4.673242E-01
  4.669095E-01
  4.668209E-01
  4.694216E-01
  4.707620E-01
  4.706693E-01
  4.710031E-01
  4.696668E-01
  4.690106E-01
  4.673182E-01
  4.670493E-01
  4.662908E-01
  4.671071E-01
  4.671871E-01
  4.683769E-01
  4.684025E-01
  4.693379E-01
  4.691698E-01
  4.701082E-01
  4.700805E-01
  4.710927E-01
  4.708572E-01
  4.712884E-01
  4.701923E-01
  4.697252E-01
  4.679762E-01
  4.673086E-01
  4.658704E-01
  4.659304E-01
  4.654343E-01
  4.664092E-01
  4.665844E-01
  4.678467E-01
  4.678931E-01
  4.686928E-01
  4.681165E-01
  4.683390E-01
  4.673914E-01
  4.675026E-01
  4.666381E-01
  4.668879E-01
  4.660900E-01
  4.662950E-01
  4.654138E-01
  4.656403E-01
  4.650123E-01
  4.657512E-01
  4.657877E-01
  4.671332E-01
  4.674943E-01
  4.687487E-01
  4.686328E-01
  4.692243E-01
  4.685566E-01
  4.689721E-01
  4.686066E-01
  4.696754E-01
  4.699965E-01
  4.714141E-01
  4.714975E-01
  4.720940E-01
  4.710430E-01
  4.706204E-01
  4.690697E-01
  4.688713E-01
  4.681827E-01
  4.691373E-01
  4.658972E-01
  4.683544E-01
  4.681962E-01
  4.699674E-01
  4.686450E-01
  4.692872E-01
  4.673074E-01
  4.679423E-01
  4.664842E-01
  4.678540E-01
  4.670168E-01
  4.687143E-01
  4.679359E-01
  4.695857E-01
  4.688210E-01
  4.705999E-01
  4.699817E-01
  4.717322E-01
  4.707384E-01
  4.717216E-01
  4.696956E-01
  4.696425E-01
  4.668724E-01
  4.665860E-01
  4.641553E-01
  4.646700E-01
  4.632675E-01
  4.647711E-01
  4.641144E-01
  4.660385E-01
  4.655167E-01
  4.673996E-01
  4.667640E-01
  4.684994E-01
  4.676470E-01
  4.690264E-01
  4.676417E-01
  4.683608E-01
  4.663290E-01
  4.666052E-01
  4.645017E-01
  4.651516E-01
  4.638133E-01
  4.654473E-01
  4.650675E-01
  4.673851E-01
  4.672290E-01
  4.692466E-01
  4.683574E-01
  4.694458E-01
  4.677535E-01
  4.684655E-01
  4.669794E-01
  4.684039E-01
  4.678289E-01
  4.699316E-01
  4.694273E-01
  4.708536E-01
  4.691106E-01
  4.691918E-01
  4.665420E-01
  4.665535E-01
  4.647426E-01
  4.662018E-01
  4.675494E-01
  4.698706E-01
  4.686984E-01
  4.701741E-01
  4.679272E-01
  4.685199E-01
  4.659356E-01
  4.668662E-01
  4.651439E-01
  4.671059E-01
  4.662019E-01
  4.685419E-01
  4.675951E-01
  4.696903E-01
  4.685618E-01
  4.706820E-01
  4.697222E-01
  4.719299E-01
  4.707326E-01
  4.722692E-01
  4.700721E-01
  4.705621E-01
  4.676053E-01
  4.678661E-01
  4.652751E-01
  4.663760E-01
  4.648569E-01
  4.669858E-01
  4.662197E-01
  4.686894E-01
  4.678283E-01
  4.698542E-01
  4.683700E-01
  4.697914E-01
  4.678796E-01
  4.691132E-01
  4.672074E-01
  4.685266E-01
  4.666790E-01
  4.679955E-01
  4.661413E-01
  4.675520E-01
  4.659674E-01
  4.678040E-01
  4.666776E-01
  4.688256E-01
  4.677150E-01
  4.695434E-01
  4.678793E-01
  4.691337E-01
  4.671177E-01
  4.684092E-01
  4.668298E-01
  4.687925E-01
  4.678360E-01
  4.700896E-01
  4.689330E-01
  4.705368E-01
  4.685134E-01
  4.693657E-01
  4.670041E-01
  4.680748E-01
  4.664182E-01
  4.684173E-01
  4.644201E-01
  4.671996E-01
  4.664834E-01
  4.689058E-01
  4.673739E-01
  4.689062E-01
  4.667718E-01
  4.681722E-01
  4.663242E-01
  4.682070E-01
  4.667876E-01
  4.689048E-01
  4.675483E-01
  4.696932E-01
  4.684625E-01
  4.708507E-01
  4.698512E-01
  4.722394E-01
  4.708223E-01
  4.723385E-01
  4.697559E-01
  4.701257E-01
  4.667600E-01
  4.669497E-01
  4.640508E-01
  4.651939E-01
  4.634442E-01
  4.656295E-01
  4.646095E-01
  4.671573E-01
  4.662106E-01
  4.686786E-01
  4.676056E-01
  4.699233E-01
  4.686183E-01
  4.705413E-01
  4.686498E-01
  4.698665E-01
  4.673171E-01
  4.681283E-01
  4.655800E-01
  4.668337E-01
  4.650620E-01
  4.672112E-01
  4.662016E-01
  4.687693E-01
  4.677263E-01
  4.698299E-01
  4.680361E-01
  4.693316E-01
  4.669273E-01
  4.680142E-01
  4.658828E-01
  4.676338E-01
  4.663077E-01
  4.686738E-01
  4.674859E-01
  4.693972E-01
  4.672844E-01
  4.681353E-01
  4.652484E-01
  4.659483E-01
  4.636387E-01
  4.654620E-01
  4.665164E-01
  4.685728E-01
  4.673706E-01
  4.690499E-01
  4.672537E-01
  4.683743E-01
  4.663037E-01
  4.675596E-01
  4.659708E-01
  4.678358E-01
  4.667274E-01
  4.687924E-01
  4.676339E-01
  4.695773E-01
  4.684248E-01
  4.705782E-01
  4.697256E-01
  4.720169E-01
  4.708958E-01
  4.724305E-01
  4.702174E-01
  4.706594E-01
  4.677242E-01
  4.680610E-01
  4.656637E-01
  4.669965E-01
  4.657478E-01
  4.680747E-01
  4.674491E-01
  4.699430E-01
  4.690682E-01
  4.710283E-01
  4.695123E-01
  4.708949E-01
  4.689826E-01
  4.701829E-01
  4.682528E-01
  4.695073E-01
  4.676276E-01
  4.689151E-01
  4.671003E-01
  4.685533E-01
  4.670311E-01
  4.688492E-01
  4.676396E-01
  4.695791E-01
  4.682193E-01
  4.697632E-01
  4.678950E-01
  4.690075E-01
  4.669572E-01
  4.682194E-01
  4.666055E-01
  4.684312E-01
  4.672929E-01
  4.693214E-01
  4.680315E-01
  4.696065E-01
  4.677245E-01
  4.687787E-01
  4.666275E-01
  4.677554E-01
  4.659973E-01
  4.677064E-01
  4.637677E-01
  4.659079E-01
  4.655416E-01
  4.678587E-01
  4.672098E-01
  4.689873E-01
  4.677872E-01
  4.691766E-01
  4.677963E-01
  4.691486E-01
  4.677780E-01
  4.691419E-01
  4.678246E-01
  4.693694E-01
  4.684080E-01
  4.704191E-01
  4.698462E-01
  4.719265E-01
  4.709292E-01
  4.720921E-01
  4.698943E-01
  4.699299E-01
  4.670438E-01
  4.670559E-01
  4.648064E-01
  4.658879E-01
  4.647925E-01
  4.667902E-01
  4.661976E-01
  4.682995E-01
  4.675686E-01
  4.694785E-01
  4.686155E-01
  4.704402E-01
  4.694265E-01
  4.709102E-01
  4.693238E-01
  4.700941E-01
  4.678543E-01
  4.682581E-01
  4.660889E-01
  4.670049E-01
  4.656433E-01
  4.674212E-01
  4.667294E-01
  4.688141E-01
  4.680135E-01
  4.696405E-01
  4.681875E-01
  4.691626E-01
  4.672463E-01
  4.680821E-01
  4.663927E-01
  4.677473E-01
  4.666853E-01
  4.685316E-01
  4.676036E-01
  4.691164E-01
  4.674492E-01
  4.680469E-01
  4.656123E-01
  4.658878E-01
  4.637292E-01
  4.648209E-01
  4.661584E-01
  4.674638E-01
  4.667606E-01
  4.681857E-01
  4.673809E-01
  4.685672E-01
  4.675222E-01
  4.685805E-01
  4.675486E-01
  4.686970E-01
  4.677311E-01
  4.688679E-01
  4.678591E-01
  4.690442E-01
  4.682821E-01
  4.699020E-01
  4.695949E-01
  4.714262E-01
  4.708644E-01
  4.719324E-01
  4.702916E-01
  4.703268E-01
  4.680744E-01
  4.681421E-01
  4.665463E-01
  4.676545E-01
  4.671372E-01
  4.690501E-01
  4.688863E-01
  4.706882E-01
  4.700650E-01
  4.712390E-01
  4.699985E-01
  4.706965E-01
  4.691797E-01
  4.697871E-01
  4.683009E-01
  4.689846E-01
  4.675745E-01
  4.683395E-01
  4.670611E-01
  4.680506E-01
  4.670854E-01
  4.684085E-01
  4.676868E-01
  4.690641E-01
  4.681734E-01
  4.692144E-01
  4.679485E-01
  4.687254E-01
  4.674168E-01
  4.683974E-01
  4.674667E-01
  4.688567E-01
  4.682091E-01
  4.696439E-01
  4.687770E-01
  4.697923E-01
  4.684273E-01
  4.689981E-01
  4.673462E-01
  4.678457E-01
  4.663487E-01
  4.671950E-01
  4.636774E-01
  4.651657E-01
  4.652348E-01
  4.672550E-01
  4.674102E-01
  4.691381E-01
  4.687680E-01
  4.698931E-01
  4.689589E-01
  4.696241E-01
  4.683724E-01
  4.689031E-01
  4.677492E-01
  4.686392E-01
  4.680659E-01
  4.696158E-01
  4.695542E-01
  4.712283E-01
  4.707586E-01
  4.715285E-01
  4.698931E-01
  4.695988E-01
  4.673549E-01
  4.671093E-01
  4.655349E-01
  4.663224E-01
  4.657809E-01
  4.672877E-01
  4.670138E-01
  4.684082E-01
  4.678536E-01
  4.690185E-01
  4.683923E-01
  4.695913E-01
  4.689424E-01
  4.699006E-01
  4.687433E-01
  4.690334E-01
  4.672724E-01
  4.672597E-01
  4.656348E-01
  4.661740E-01
  4.653461E-01
  4.666838E-01
  4.664350E-01
  4.680062E-01
  4.676378E-01
  4.688264E-01
  4.679558E-01
  4.686751E-01
  4.674961E-01
  4.681481E-01
  4.671569E-01
  4.681878E-01
  4.676286E-01
  4.689643E-01
  4.684170E-01
  4.693869E-01
  4.681410E-01
  4.682574E-01
  4.662641E-01
  4.659954E-01
  4.641374E-01
  4.645236E-01
  4.663963E-01
  4.672373E-01
  4.667924E-01
  4.678895E-01
  4.675349E-01
  4.685484E-01
  4.679884E-01
  4.687563E-01
  4.679769E-01
  4.685776E-01
  4.676816E-01
  4.682259E-01
  4.673807E-01
  4.681516E-01
  4.677402E-01
  4.690823E-01
  4.691921E-01
  4.707597E-01
  4.706131E-01
  4.714288E-01
  4.702340E-01
  4.700529E-01
  4.682648E-01
  4.680974E-01
  4.669017E-01
  4.676690E-01
  4.674170E-01
  4.688448E-01
  4.688185E-01
  4.700508E-01
  4.695431E-01
  4.701908E-01
  4.691562E-01
  4.694339E-01
  4.682154E-01
  4.684687E-01
  4.673294E-01
  4.677105E-01
  4.667169E-01
  4.672619E-01
  4.664681E-01
  4.672559E-01
  4.667211E-01
  4.677216E-01
  4.672804E-01
  4.682123E-01
  4.675586E-01
  4.682167E-01
  4.673458E-01
  4.679483E-01
  4.672283E-01
  4.681501E-01
  4.678071E-01
  4.690201E-01
  4.687630E-01
  4.698094E-01
  4.691749E-01
  4.697424E-01
  4.686552E-01
  4.688926E-01
  4.676385E-01
  4.678665E-01
  4.667364E-01
  4.672002E-01
  4.643530E-01
  4.655169E-01
  4.656791E-01
  4.672665E-01
  4.675182E-01
  4.688803E-01
  4.686684E-01
  4.694348E-01
  4.686090E-01
  4.688520E-01
  4.676903E-01
  4.678626E-01
  4.669369E-01
  4.676333E-01
  4.674200E-01
  4.688375E-01
  4.691290E-01
  4.706313E-01
  4.704852E-01
  4.710845E-01
  4.697931E-01
  4.693332E-01
  4.673892E-01
  4.668725E-01
  4.654487E-01
  4.658106E-01
  4.653009E-01
  4.663276E-01
  4.661042E-01
  4.670998E-01
  4.667148E-01
  4.676067E-01
  4.672530E-01
  4.682391E-01
  4.678789E-01
  4.686163E-01
  4.677479E-01
  4.678544E-01
  4.664634E-01
  4.663692E-01
  4.651916E-01
  4.656533E-01
  4.651765E-01
  4.662520E-01
  4.661305E-01
  4.672473E-01
  4.669115E-01
  4.676853E-01
  4.670146E-01
  4.675646E-01
  4.668325E-01
  4.674849E-01
  4.669789E-01
  4.679068E-01
  4.676266E-01
  4.686254E-01
  4.681820E-01
  4.687660E-01
  4.677236E-01
  4.676702E-01
  4.661359E-01
  4.658973E-01
  4.645659E-01
  4.648901E-01
  4.675888E-01
  4.681041E-01
  4.676914E-01
  4.681420E-01
  4.676658E-01
  4.680349E-01
  4.674532E-01
  4.677087E-01
  4.670322E-01
  4.672361E-01
  4.665702E-01
  4.668694E-01
  4.664162E-01
  4.670744E-01
  4.671165E-01
  4.683221E-01
  4.688019E-01
  4.701426E-01
  4.703167E-01
  4.709113E-01
  4.700689E-01
  4.696690E-01
  4.681588E-01
  4.676129E-01
  4.664884E-01
  4.666916E-01
  4.664139E-01
  4.673075E-01
  4.674068E-01
  4.683329E-01
  4.681905E-01
  4.687196E-01
  4.681440E-01
  4.682953E-01
  4.674543E-01
  4.674789E-01
  4.666515E-01
  4.668135E-01
  4.662177E-01
  4.666665E-01
  4.663651E-01
  4.670594E-01
  4.668943E-01
  4.675667E-01
  4.672078E-01
  4.675570E-01
  4.668452E-01
  4.669430E-01
  4.661965E-01
  4.665257E-01
  4.662309E-01
  4.670976E-01
  4.672468E-01
  4.683054E-01
  4.683201E-01
  4.689611E-01
  4.684224E-01
  4.685667E-01
  4.677458E-01
  4.678818E-01
  4.672717E-01
  4.677085E-01
  4.673553E-01
  4.679279E-01
  4.660358E-01
  4.667124E-01
  4.669747E-01
  4.676251E-01
  4.677303E-01
  4.681259E-01
  4.679064E-01
  4.679373E-01
  4.673607E-01
  4.671149E-01
  4.664287E-01
  4.663124E-01
  4.660176E-01
  4.665050E-01
  4.669037E-01
  4.680035E-01
  4.687562E-01
  4.698165E-01
  4.700875E-01
  4.702885E-01
  4.694993E-01
  4.686906E-01
  4.671982E-01
  4.661682E-01
  4.649651E-01
  4.646053E-01
  4.642202E-01
  4.645918E-01
  4.647125E-01
  4.653605E-01
  4.656219E-01
  4.663762E-01
  4.667350E-01
  4.675061E-01
  4.676871E-01
  4.680234E-01
  4.675729E-01
  4.672641E-01
  4.663831E-01
  4.660200E-01
  4.654719E-01
  4.656808E-01
  4.657057E-01
  4.662700E-01
  4.663272E-01
  4.666411E-01
  4.663174E-01
  4.663048E-01
  4.658449E-01
  4.659282E-01
  4.657457E-01
  4.661807E-01
  4.663083E-01
  4.669226E-01
  4.670518E-01
  4.674863E-01
  4.672897E-01
  4.673222E-01
  4.667431E-01
  4.665151E-01
  4.658764E-01
  4.658153E-01
  4.655282E-01
  4.659078E-01
  4.695947E-01
  4.693610E-01
  4.692021E-01
  4.684373E-01
  4.679541E-01
  4.670798E-01
  4.666577E-01
  4.659546E-01
  4.657630E-01
  4.653193E-01
  4.654049E-01
  4.652598E-01
  4.656770E-01
  4.659038E-01
  4.667176E-01
  4.673108E-01
  4.683650E-01
  4.689612E-01
  4.697014E-01
  4.696683E-01
  4.695724E-01
  4.686911E-01
  4.679548E-01
  4.668074E-01
  4.662332E-01
  4.656050E-01
  4.657461E-01
  4.658410E-01
  4.665548E-01
  4.669751E-01
  4.677355E-01
  4.679451E-01
  4.683001E-01
  4.680046E-01
  4.678709E-01
  4.672202E-01
  4.669532E-01
  4.664241E-01
  4.664972E-01
  4.664278E-01
  4.669433E-01
  4.671587E-01
  4.676965E-01
  4.676357E-01
  4.676531E-01
  4.669710E-01
  4.664643E-01
  4.655470E-01
  4.652090E-01
  4.648502E-01
  4.653100E-01
  4.657456E-01
  4.667442E-01
  4.672940E-01
  4.679621E-01
  4.678775E-01
  4.678595E-01
  4.673048E-01
  4.672104E-01
  4.669889E-01
  4.674870E-01
  4.678670E-01
  4.687317E-01
  4.691038E-01
  4.680793E-01
  4.677634E-01
  4.684336E-01
  4.677177E-01
  4.680280E-01
  4.670555E-01
  4.672137E-01
  4.661604E-01
  4.662847E-01
  4.652590E-01
  4.655214E-01
  4.647907E-01
  4.655071E-01
  4.653264E-01
  4.665744E-01
  4.667795E-01
  4.681679E-01
  4.682214E-01
  4.691769E-01
  4.685778E-01
  4.687660E-01
  4.674237E-01
  4.670448E-01
  4.654389E-01
  4.651579E-01
  4.639730E-01
  4.643133E-01
  4.637959E-01
  4.647288E-01
  4.646771E-01
  4.659533E-01
  4.661323E-01
  4.674966E-01
  4.675507E-01
  4.685182E-01
  4.679271E-01
  4.681428E-01
  4.669205E-01
  4.668430E-01
  4.657654E-01
  4.661925E-01
  4.657492E-01
  4.666595E-01
  4.663426E-01
  4.669830E-01
  4.661379E-01
  4.662367E-01
  4.650770E-01
  4.652223E-01
  4.644526E-01
  4.651870E-01
  4.650059E-01
  4.661548E-01
  4.661208E-01
  4.671485E-01
  4.667959E-01
  4.674158E-01
  4.666823E-01
  4.670511E-01
  4.662660E-01
  4.667985E-01
  4.663404E-01
  4.672503E-01
  4.670807E-01
  4.713432E-01
  4.700255E-01
  4.703365E-01
  4.682857E-01
  4.681767E-01
  4.660514E-01
  4.661569E-01
  4.644334E-01
  4.650249E-01
  4.637943E-01
  4.648403E-01
  4.640055E-01
  4.653835E-01
  4.648174E-01
  4.664004E-01
  4.659691E-01
  4.675991E-01
  4.671002E-01
  4.685238E-01
  4.676768E-01
  4.686463E-01
  4.673181E-01
  4.678853E-01
  4.663348E-01
  4.669214E-01
  4.656339E-01
  4.666694E-01
  4.659168E-01
  4.674553E-01
  4.670594E-01
  4.687168E-01
  4.681535E-01
  4.693723E-01
  4.681897E-01
  4.687642E-01
  4.670944E-01
  4.674892E-01
  4.660107E-01
  4.669162E-01
  4.661117E-01
  4.676389E-01
  4.671936E-01
  4.686780E-01
  4.677666E-01
  4.684758E-01
  4.667068E-01
  4.667508E-01
  4.647433E-01
  4.650852E-01
  4.638501E-01
  4.652195E-01
  4.649633E-01
  4.669796E-01
  4.668730E-01
  4.685497E-01
  4.677889E-01
  4.687711E-01
  4.675481E-01
  4.684699E-01
  4.675917E-01
  4.691010E-01
  4.687896E-01
  4.705857E-01
  4.701261E-01
  4.692432E-01
  4.680019E-01
  4.690464E-01
  4.674069E-01
  4.681216E-01
  4.662971E-01
  4.669729E-01
  4.652057E-01
  4.659852E-01
  4.643578E-01
  4.653428E-01
  4.640203E-01
  4.654031E-01
  4.645072E-01
  4.662462E-01
  4.655486E-01
  4.672913E-01
  4.664245E-01
  4.678813E-01
  4.666700E-01
  4.677679E-01
  4.662198E-01
  4.670473E-01
  4.653492E-01
  4.661903E-01
  4.646757E-01
  4.658297E-01
  4.646885E-01
  4.662132E-01
  4.654051E-01
  4.672095E-01
  4.665992E-01
  4.684561E-01
  4.676718E-01
  4.690852E-01
  4.676437E-01
  4.683596E-01
  4.664188E-01
  4.670323E-01
  4.654403E-01
  4.667181E-01
  4.658279E-01
  4.675443E-01
  4.666409E-01
  4.679009E-01
  4.662956E-01
  4.669028E-01
  4.649558E-01
  4.656565E-01
  4.641899E-01
  4.655807E-01
  4.647972E-01
  4.666941E-01
  4.661604E-01
  4.680563E-01
  4.673254E-01
  4.688985E-01
  4.677931E-01
  4.690186E-01
  4.676727E-01
  4.688242E-01
  4.675757E-01
  4.689275E-01
  4.678579E-01
  4.717510E-01
  4.699327E-01
  4.703503E-01
  4.679887E-01
  4.681346E-01
  4.658031E-01
  4.662286E-01
  4.643276E-01
  4.652324E-01
  4.637840E-01
  4.650753E-01
  4.639349E-01
  4.654567E-01
  4.644739E-01
  4.660873E-01
  4.651416E-01
  4.667518E-01
  4.657749E-01
  4.673314E-01
  4.662768E-01
  4.677308E-01
  4.665581E-01
  4.679018E-01
  4.666587E-01
  4.680002E-01
  4.668362E-01
  4.683290E-01
  4.673561E-01
  4.690273E-01
  4.681528E-01
  4.697720E-01
  4.686448E-01
  4.698113E-01
  4.681054E-01
  4.687107E-01
  4.666373E-01
  4.672144E-01
  4.655061E-01
  4.667715E-01
  4.658923E-01
  4.678854E-01
  4.674048E-01
  4.693278E-01
  4.683055E-01
  4.693591E-01
  4.673938E-01
  4.677185E-01
  4.654671E-01
  4.660412E-01
  4.645013E-01
  4.660390E-01
  4.654438E-01
  4.676673E-01
  4.673620E-01
  4.694744E-01
  4.687699E-01
  4.703764E-01
  4.692444E-01
  4.706302E-01
  4.695154E-01
  4.710823E-01
  4.701629E-01
  4.717746E-01
  4.706359E-01
  4.688753E-01
  4.677365E-01
  4.684948E-01
  4.672869E-01
  4.679605E-01
  4.667053E-01
  4.673683E-01
  4.660996E-01
  4.667162E-01
  4.653878E-01
  4.659979E-01
  4.647867E-01
  4.656586E-01
  4.647994E-01
  4.660076E-01
  4.653673E-01
  4.666298E-01
  4.659017E-01
  4.670006E-01
  4.661011E-01
  4.670622E-01
  4.660718E-01
  4.669905E-01
  4.660080E-01
  4.669829E-01
  4.660876E-01
  4.671471E-01
  4.663029E-01
  4.673774E-01
  4.665442E-01
  4.676670E-01
  4.669258E-01
  4.681269E-01
  4.673477E-01
  4.683120E-01
  4.671079E-01
  4.675917E-01
  4.660619E-01
  4.665610E-01
  4.654423E-01
  4.666246E-01
  4.662021E-01
  4.678137E-01
  4.673827E-01
  4.685622E-01
  4.674609E-01
  4.679970E-01
  4.665037E-01
  4.669977E-01