# vtk DataFile Version 2.0
title
ASCII
DATASET STRUCTURED_GRID
DIMENSIONS   64   64    1
POINTS   4096  float
  0.000000E+00  0.000000E+00  0.000000E+00
  0.000000E+00  3.906250E-01  0.000000E+00
  0.000000E+00  7.812500E-01  0.000000E+00
  0.000000E+00  1.171875E+00  0.000000E+00
  0.000000E+00  1.562500E+00  0.000000E+00
  0.000000E+00  1.953125E+00  0.000000E+00
  0.000000E+00  2.343750E+00  0.000000E+00
  0.000000E+00  2.734375E+00  0.000000E+00
  0.000000E+00  3.125000E+00  0.000000E+00
  0.000000E+00  3.515625E+00  0.000000E+00
  0.000000E+00  3.906250E+00  0.000000E+00
  0.000000E+00  4.296875E+00  0.000000E+00
  0.000000E+00  4.687500E+00  0.000000E+00
  0.000000E+00  5.078125E+00  0.000000E+00
  0.000000E+00  5.468750E+00  0.000000E+00
  0.000000E+00  5.859375E+00  0.000000E+00
  0.000000E+00  6.250000E+00  0.000000E+00
  0.000000E+00  6.640625E+00  0.000000E+00
  0.000000E+00  7.031250E+00  0.000000E+00
  0.000000E+00  7.421875E+00  0.000000E+00
  0.000000E+00  7.812500E+00  0.000000E+00
  0.000000E+00  8.203125E+00  0.000000E+00
  0.000000E+00  8.593750E+00  0.000000E+00
  0.000000E+00  8.984375E+00  0.000000E+00
  0.000000E+00  9.375000E+00  0.000000E+00
  0.000000E+00  9.765625E+00  0.000000E+00
  0.000000E+00  1.015625E+01  0.000000E+00
  0.000000E+00  1.054688E+01  0.000000E+00
  0.000000E+00  1.093750E+01  0.000000E+00
  0.000000E+00  1.132812E+01  0.000000E+00
  0.000000E+00  1.171875E+01  0.000000E+00
  0.000000E+00  1.210938E+01  0.000000E+00
  0.000000E+00  1.250000E+01  0.000000E+00
  0.000000E+00  1.289062E+01  0.000000E+00
  0.000000E+00  1.328125E+01  0.000000E+00
  0.000000E+00  1.367188E+01  0.000000E+00
  0.000000E+00  1.406250E+01  0.000000E+00
  0.000000E+00  1.445312E+01  0.000000E+00
  0.000000E+00  1.484375E+01  0.000000E+00
  0.000000E+00  1.523438E+01  0.000000E+00
  0.000000E+00  1.562500E+01  0.000000E+00
  0.000000E+00  1.601562E+01  0.000000E+00
  0.000000E+00  1.640625E+01  0.000000E+00
  0.000000E+00  1.679688E+01  0.000000E+00
  0.000000E+00  1.718750E+01  0.000000E+00
  0.000000E+00  1.757812E+01  0.000000E+00
  0.000000E+00  1.796875E+01  0.000000E+00
  0.000000E+00  1.835938E+01  0.000000E+00
  0.000000E+00  1.875000E+01  0.000000E+00
  0.000000E+00  1.914062E+01  0.000000E+00
  0.000000E+00  1.953125E+01  0.000000E+00
  0.000000E+00  1.992188E+01  0.000000E+00
  0.000000E+00  2.031250E+01  0.000000E+00
  0.000000E+00  2.070312E+01  0.000000E+00
  0.000000E+00  2.109375E+01  0.000000E+00
  0.000000E+00  2.148438E+01  0.000000E+00
  0.000000E+00  2.187500E+01  0.000000E+00
  0.000000E+00  2.226562E+01  0.000000E+00
  0.000000E+00  2.265625E+01  0.000000E+00
  0.000000E+00  2.304688E+01  0.000000E+00
  0.000000E+00  2.343750E+01  0.000000E+00
  0.000000E+00  2.382812E+01  0.000000E+00
  0.000000E+00  2.421875E+01  0.000000E+00
  0.000000E+00  2.460938E+01  0.000000E+00
  3.906250E-01  0.000000E+00  0.000000E+00
  3.906250E-01  3.906250E-01  0.000000E+00
  3.906250E-01  7.812500E-01  0.000000E+00
  3.906250E-01  1.171875E+00  0.000000E+00
  3.906250E-01  1.562500E+00  0.000000E+00
  3.906250E-01  1.953125E+00  0.000000E+00
  3.906250E-01  2.343750E+00  0.000000E+00
  3.906250E-01  2.734375E+00  0.000000E+00
  3.906250E-01  3.125000E+00  0.000000E+00
  3.906250E-01  3.515625E+00  0.000000E+00
  3.906250E-01  3.906250E+00  0.000000E+00
  3.906250E-01  4.296875E+00  0.000000E+00
  3.906250E-01  4.687500E+00  0.000000E+00
  3.906250E-01  5.078125E+00  0.000000E+00
  3.906250E-01  5.468750E+00  0.000000E+00
  3.906250E-01  5.859375E+00  0.000000E+00
  3.906250E-01  6.250000E+00  0.000000E+00
  3.906250E-01  6.640625E+00  0.000000E+00
  3.906250E-01  7.031250E+00  0.000000E+00
  3.906250E-01  7.421875E+00  0.000000E+00
  3.906250E-01  7.812500E+00  0.000000E+00
  3.906250E-01  8.203125E+00  0.000000E+00
  3.906250E-01  8.593750E+00  0.000000E+00
  3.906250E-01  8.984375E+00  0.000000E+00
  3.906250E-01  9.375000E+00  0.000000E+00
  3.906250E-01  9.765625E+00  0.000000E+00
  3.906250E-01  1.015625E+01  0.000000E+00
  3.906250E-01  1.054688E+01  0.000000E+00
  3.906250E-01  1.093750E+01  0.000000E+00
  3.906250E-01  1.132812E+01  0.000000E+00
  3.906250E-01  1.171875E+01  0.000000E+00
  3.906250E-01  1.210938E+01  0.000000E+00
  3.906250E-01  1.250000E+01  0.000000E+00
  3.906250E-01  1.289062E+01  0.000000E+00
  3.906250E-01  1.328125E+01  0.000000E+00
  3.906250E-01  1.367188E+01  0.000000E+00
  3.906250E-01  1.406250E+01  0.000000E+00
  3.906250E-01  1.445312E+01  0.000000E+00
  3.906250E-01  1.484375E+01  0.000000E+00
  3.906250E-01  1.523438E+01  0.000000E+00
  3.906250E-01  1.562500E+01  0.000000E+00
  3.906250E-01  1.601562E+01  0.000000E+00
  3.906250E-01  1.640625E+01  0.000000E+00
  3.906250E-01  1.679688E+01  0.000000E+00
  3.906250E-01  1.718750E+01  0.000000E+00
  3.906250E-01  1.757812E+01  0.000000E+00
  3.906250E-01  1.796875E+01  0.000000E+00
  3.906250E-01  1.835938E+01  0.000000E+00
  3.906250E-01  1.875000E+01  0.000000E+00
  3.906250E-01  1.914062E+01  0.000000E+00
  3.906250E-01  1.953125E+01  0.000000E+00
  3.906250E-01  1.992188E+01  0.000000E+00
  3.906250E-01  2.031250E+01  0.000000E+00
  3.906250E-01  2.070312E+01  0.000000E+00
  3.906250E-01  2.109375E+01  0.000000E+00
  3.906250E-01  2.148438E+01  0.000000E+00
  3.906250E-01  2.187500E+01  0.000000E+00
  3.906250E-01  2.226562E+01  0.000000E+00
  3.906250E-01  2.265625E+01  0.000000E+00
  3.906250E-01  2.304688E+01  0.000000E+00
  3.906250E-01  2.343750E+01  0.000000E+00
  3.906250E-01  2.382812E+01  0.000000E+00
  3.906250E-01  2.421875E+01  0.000000E+00
  3.906250E-01  2.460938E+01  0.000000E+00
  7.812500E-01  0.000000E+00  0.000000E+00
  7.812500E-01  3.906250E-01  0.000000E+00
  7.812500E-01  7.812500E-01  0.000000E+00
  7.812500E-01  1.171875E+00  0.000000E+00
  7.812500E-01  1.562500E+00  0.000000E+00
  7.812500E-01  1.953125E+00  0.000000E+00
  7.812500E-01  2.343750E+00  0.000000E+00
  7.812500E-01  2.734375E+00  0.000000E+00
  7.812500E-01  3.125000E+00  0.000000E+00
  7.812500E-01  3.515625E+00  0.000000E+00
  7.812500E-01  3.906250E+00  0.000000E+00
  7.812500E-01  4.296875E+00  0.000000E+00
  7.812500E-01  4.687500E+00  0.000000E+00
  7.812500E-01  5.078125E+00  0.000000E+00
  7.812500E-01  5.468750E+00  0.000000E+00
  7.812500E-01  5.859375E+00  0.000000E+00
  7.812500E-01  6.250000E+00  0.000000E+00
  7.812500E-01  6.640625E+00  0.000000E+00
  7.812500E-01  7.031250E+00  0.000000E+00
  7.812500E-01  7.421875E+00  0.000000E+00
  7.812500E-01  7.812500E+00  0.000000E+00
  7.812500E-01  8.203125E+00  0.000000E+00
  7.812500E-01  8.593750E+00  0.000000E+00
  7.812500E-01  8.984375E+00  0.000000E+00
  7.812500E-01  9.375000E+00  0.000000E+00
  7.812500E-01  9.765625E+00  0.000000E+00
  7.812500E-01  1.015625E+01  0.000000E+00
  7.812500E-01  1.054688E+01  0.000000E+00
  7.812500E-01  1.093750E+01  0.000000E+00
  7.812500E-01  1.132812E+01  0.000000E+00
  7.812500E-01  1.171875E+01  0.000000E+00
  7.812500E-01  1.210938E+01  0.000000E+00
  7.812500E-01  1.250000E+01  0.000000E+00
  7.812500E-01  1.289062E+01  0.000000E+00
  7.812500E-01  1.328125E+01  0.000000E+00
  7.812500E-01  1.367188E+01  0.000000E+00
  7.812500E-01  1.406250E+01  0.000000E+00
  7.812500E-01  1.445312E+01  0.000000E+00
  7.812500E-01  1.484375E+01  0.000000E+00
  7.812500E-01  1.523438E+01  0.000000E+00
  7.812500E-01  1.562500E+01  0.000000E+00
  7.812500E-01  1.601562E+01  0.000000E+00
  7.812500E-01  1.640625E+01  0.000000E+00
  7.812500E-01  1.679688E+01  0.000000E+00
  7.812500E-01  1.718750E+01  0.000000E+00
  7.812500E-01  1.757812E+01  0.000000E+00
  7.812500E-01  1.796875E+01  0.000000E+00
  7.812500E-01  1.835938E+01  0.000000E+00
  7.812500E-01  1.875000E+01  0.000000E+00
  7.812500E-01  1.914062E+01  0.000000E+00
  7.812500E-01  1.953125E+01  0.000000E+00
  7.812500E-01  1.992188E+01  0.000000E+00
  7.812500E-01  2.031250E+01  0.000000E+00
  7.812500E-01  2.070312E+01  0.000000E+00
  7.812500E-01  2.109375E+01  0.000000E+00
  7.812500E-01  2.148438E+01  0.000000E+00
  7.812500E-01  2.187500E+01  0.000000E+00
  7.812500E-01  2.226562E+01  0.000000E+00
  7.812500E-01  2.265625E+01  0.000000E+00
  7.812500E-01  2.304688E+01  0.000000E+00
  7.812500E-01  2.343750E+01  0.000000E+00
  7.812500E-01  2.382812E+01  0.000000E+00
  7.812500E-01  2.421875E+01  0.000000E+00
  7.812500E-01  2.460938E+01  0.000000E+00
  1.171875E+00  0.000000E+00  0.000000E+00
  1.171875E+00  3.906250E-01  0.000000E+00
  1.171875E+00  7.812500E-01  0.000000E+00
  1.171875E+00  1.171875E+00  0.000000E+00
  1.171875E+00  1.562500E+00  0.000000E+00
  1.171875E+00  1.953125E+00  0.000000E+00
  1.171875E+00  2.343750E+00  0.000000E+00
  1.171875E+00  2.734375E+00  0.000000E+00
  1.171875E+00  3.125000E+00  0.000000E+00
  1.171875E+00  3.515625E+00  0.000000E+00
  1.171875E+00  3.906250E+00  0.000000E+00
  1.171875E+00  4.296875E+00  0.000000E+00
  1.171875E+00  4.687500E+00  0.000000E+00
  1.171875E+00  5.078125E+00  0.000000E+00
  1.171875E+00  5.468750E+00  0.000000E+00
  1.171875E+00  5.859375E+00  0.000000E+00
  1.171875E+00  6.250000E+00  0.000000E+00
  1.171875E+00  6.640625E+00  0.000000E+00
  1.171875E+00  7.031250E+00  0.000000E+00
  1.171875E+00  7.421875E+00  0.000000E+00
  1.171875E+00  7.812500E+00  0.000000E+00
  1.171875E+00  8.203125E+00  0.000000E+00
  1.171875E+00  8.593750E+00  0.000000E+00
  1.171875E+00  8.984375E+00  0.000000E+00
  1.171875E+00  9.375000E+00  0.000000E+00
  1.171875E+00  9.765625E+00  0.000000E+00
  1.171875E+00  1.015625E+01  0.000000E+00
  1.171875E+00  1.054688E+01  0.000000E+00
  1.171875E+00  1.093750E+01  0.000000E+00
  1.171875E+00  1.132812E+01  0.000000E+00
  1.171875E+00  1.171875E+01  0.000000E+00
  1.171875E+00  1.210938E+01  0.000000E+00
  1.171875E+00  1.250000E+01  0.000000E+00
  1.171875E+00  1.289062E+01  0.000000E+00
  1.171875E+00  1.328125E+01  0.000000E+00
  1.171875E+00  1.367188E+01  0.000000E+00
  1.171875E+00  1.406250E+01  0.000000E+00
  1.171875E+00  1.445312E+01  0.000000E+00
[...]
POINT_DATA   4096
SCALARS CON  float  1
LOOKUP_TABLE default
  4.695178E-01
  4.684623E-01
  4.708696E-01
  4.694289E-01
  4.711817E-01
  4.690905E-01
  4.704145E-01
  4.681987E-01
  4.696477E-01
  4.676795E-01
  4.693845E-01
  4.676348E-01
  4.695430E-01
  4.680251E-01
  4.702018E-01
  4.689305E-01
  4.712213E-01
  4.698213E-01
  4.716905E-01
  4.696237E-01
  4.707218E-01
  4.679704E-01
  4.686463E-01
  4.658367E-01
  4.668132E-01
  4.645564E-01
  4.661721E-01
  4.644781E-01
  4.664781E-01
  4.649768E-01
  4.670423E-01
  4.655730E-01
  4.677021E-01
  4.663258E-01
  4.685081E-01
  4.670496E-01
  4.689498E-01
  4.670214E-01
  4.683624E-01
  4.659419E-01
  4.670191E-01
  4.646732E-01
  4.661853E-01
  4.645563E-01
  4.669034E-01
  4.660161E-01
  4.688085E-01
  4.679388E-01
  4.703158E-01
  4.687378E-01
  4.703655E-01
  4.682735E-01
  4.698104E-01
  4.680613E-01
  4.701895E-01
  4.689708E-01
  4.712728E-01
  4.697310E-01
  4.713028E-01
  4.689128E-01
  4.698798E-01
  4.673967E-01
  4.688341E-01
  4.671975E-01
  4.713257E-01
  4.706607E-01
  4.718915E-01
  4.705179E-01
  4.709358E-01
  4.689458E-01
  4.691554E-01
  4.674074E-01
  4.681819E-01
  4.670985E-01
  4.684275E-01
  4.676794E-01
  4.691420E-01
  4.684275E-01
  4.699274E-01
  4.692886E-01
  4.708457E-01
  4.701331E-01
  4.713891E-01
  4.701340E-01
  4.707001E-01
  4.687829E-01
  4.689061E-01
  4.669005E-01
  4.673200E-01
  4.659118E-01
  4.670623E-01
  4.663217E-01
  4.679100E-01
  4.672895E-01
  4.686916E-01
  4.676789E-01
  4.686331E-01
  4.672621E-01
  4.680361E-01
  4.666671E-01
  4.675537E-01
  4.663021E-01
  4.672271E-01
  4.659177E-01
  4.667499E-01
  4.654229E-01
  4.664146E-01
  4.654600E-01
  4.669745E-01
  4.665459E-01
  4.684149E-01
  4.680442E-01
  4.696620E-01
  4.688477E-01
  4.700322E-01
  4.689939E-01
  4.702635E-01
  4.695652E-01
  4.712386E-01
  4.707658E-01
  4.723101E-01
  4.713357E-01
  4.721659E-01
  4.705374E-01
  4.710378E-01
  4.695382E-01
  4.705653E-01
  4.697554E-01
  4.680716E-01
  4.686803E-01
  4.697216E-01
  4.699128E-01
  4.701688E-01
  4.695453E-01
  4.692504E-01
  4.684762E-01
  4.683864E-01
  4.680099E-01
  4.683320E-01
  4.682740E-01
  4.688116E-01
  4.689193E-01
  4.696210E-01
  4.698795E-01
  4.706371E-01
  4.707452E-01
  4.710704E-01
  4.704796E-01
  4.699628E-01
  4.685852E-01
  4.675434E-01
  4.660448E-01
  4.653135E-01
  4.644627E-01
  4.645386E-01
  4.644582E-01
  4.651202E-01
  4.653829E-01
  4.661737E-01
  4.664281E-01
  4.671452E-01
  4.672860E-01
  4.678218E-01
  4.676625E-01
  4.677528E-01
  4.670391E-01
  4.665750E-01
  4.654608E-01
  4.648965E-01
  4.640668E-01
  4.641578E-01
  4.642341E-01
  4.652798E-01
  4.661268E-01
  4.675613E-01
  4.683170E-01
  4.692253E-01
  4.692094E-01
  4.693808E-01
  4.689350E-01
  4.691360E-01
  4.691358E-01
  4.699610E-01
  4.704225E-01
  4.712502E-01
  4.711448E-01
  4.709796E-01
  4.698076E-01
  4.689185E-01
  4.676654E-01
  4.673877E-01
  4.672120E-01
  4.694835E-01
  4.704909E-01
  4.702716E-01
  4.705503E-01
  4.694397E-01
  4.690021E-01
  4.676106E-01
  4.674084E-01
  4.666515E-01
  4.672362E-01
  4.671608E-01
  4.681643E-01
  4.682355E-01
  4.692202E-01
  4.692426E-01
  4.702210E-01
  4.702466E-01
  4.711242E-01
  4.708272E-01
  4.711202E-01
  4.700567E-01
  4.695851E-01
  4.679780E-01
  4.673535E-01
  4.660414E-01
  4.660855E-01
  4.656372E-01
  4.665171E-01
  4.666766E-01
  4.678143E-01
  4.678655E-01
  4.686138E-01
  4.681447E-01
  4.684019E-01
  4.675869E-01
  4.676815E-01
  4.668477E-01
  4.669862E-01
  4.661880E-01
  4.663351E-01
  4.655635E-01
  4.658358E-01
  4.653519E-01
  4.660721E-01
  4.661081E-01
  4.672708E-01
  4.675227E-01
  4.685965E-01
  4.684940E-01
  4.691008E-01
  4.686272E-01
  4.691315E-01
  4.688769E-01
  4.698198E-01
  4.700012E-01
  4.711301E-01
  4.710896E-01
  4.716015E-01
  4.707406E-01
  4.705262E-01
  4.693126E-01
  4.692595E-01
  4.686565E-01
  4.694134E-01
  4.660843E-01
  4.681279E-01
  4.678590E-01
  4.695187E-01
  4.684740E-01
  4.693042E-01
  4.676849E-01
  4.683541E-01
  4.669589E-01
  4.680728E-01
  4.671457E-01
  4.686187E-01
  4.679154E-01
  4.695299E-01
  4.689493E-01
  4.706752E-01
  4.701233E-01
  4.716783E-01
  4.706633E-01
  4.714625E-01
  4.695190E-01
  4.694302E-01
  4.668735E-01
  4.666165E-01
  4.643810E-01
  4.648402E-01
  4.635230E-01
  4.648833E-01
  4.642783E-01
  4.660836E-01
  4.656708E-01
  4.674845E-01
  4.669659E-01
  4.685906E-01
  4.677862E-01
  4.689983E-01
  4.676522E-01
  4.682523E-01
  4.663465E-01
  4.665924E-01
  4.646678E-01
  4.652836E-01
  4.640651E-01
  4.655700E-01
  4.652077E-01
  4.673170E-01
  4.671502E-01
  4.690031E-01
  4.682215E-01
  4.693125E-01
  4.678885E-01
  4.686866E-01
  4.674203E-01
  4.687460E-01
  4.681312E-01
  4.699097E-01
  4.692837E-01
  4.705025E-01
  4.689182E-01
  4.691196E-01
  4.668550E-01
  4.669995E-01
  4.653528E-01
  4.665779E-01
  4.676232E-01
  4.696258E-01
  4.684346E-01
  4.698314E-01
  4.678700E-01
  4.686287E-01
  4.664028E-01
  4.673596E-01
  4.657030E-01
  4.673812E-01
  4.663590E-01
  4.684320E-01
  4.675518E-01
  4.696147E-01
  4.687023E-01
  4.707790E-01
  4.698852E-01
  4.718592E-01
  4.706118E-01
  4.719374E-01
  4.698372E-01
  4.703122E-01
  4.676098E-01
  4.679207E-01
  4.655533E-01
  4.666107E-01
  4.652002E-01
  4.671798E-01
  4.664429E-01
  4.687218E-01
  4.678964E-01
  4.697866E-01
  4.684227E-01
  4.697838E-01
  4.680177E-01
  4.691495E-01
  4.673026E-01
  4.684393E-01
  4.666256E-01
  4.678061E-01
  4.660761E-01
  4.674300E-01
  4.659904E-01
  4.677216E-01
  4.666529E-01
  4.686242E-01
  4.675647E-01
  4.692921E-01
  4.678160E-01
  4.691149E-01
  4.673783E-01
  4.687061E-01
  4.672915E-01
  4.691087E-01
  4.681400E-01
  4.701492E-01
  4.689998E-01
  4.704859E-01
  4.686460E-01
  4.695288E-01
  4.674059E-01
  4.684415E-01
  4.668544E-01
  4.686028E-01
  4.645610E-01
  4.670621E-01
  4.662729E-01
  4.686169E-01
  4.672859E-01
  4.689626E-01
  4.670992E-01
  4.685345E-01
  4.667298E-01
  4.684183E-01
  4.669199E-01
  4.688704E-01
  4.675728E-01
  4.697036E-01
  4.686040E-01
  4.709291E-01
  4.699220E-01
  4.721020E-01
  4.706130E-01
  4.719819E-01
  4.694949E-01
  4.699210E-01
  4.668054E-01
  4.670970E-01
  4.643747E-01
  4.654673E-01
  4.637312E-01
  4.657558E-01
  4.647234E-01
  4.671577E-01
  4.662753E-01
  4.686842E-01
  4.676747E-01
  4.698797E-01
  4.685660E-01
  4.703320E-01
  4.684479E-01
  4.695841E-01
  4.671465E-01
  4.679620E-01
  4.655528E-01
  4.667707E-01
  4.650523E-01
  4.670740E-01
  4.660579E-01
  4.684915E-01
  4.674903E-01
  4.695501E-01
  4.679102E-01
  4.692729E-01
  4.671059E-01
  4.682872E-01
  4.663427E-01
  4.680595E-01
  4.667442E-01
  4.689104E-01
  4.676419E-01
  4.693773E-01
  4.673179E-01
  4.681798E-01
  4.654994E-01
  4.662518E-01
  4.640477E-01
  4.657167E-01
  4.665369E-01
  4.684920E-01
  4.672272E-01
  4.688914E-01
  4.671772E-01
  4.684246E-01
  4.664981E-01
  4.678175E-01
  4.662046E-01
  4.679443E-01
  4.667055E-01
  4.686806E-01
  4.675449E-01
  4.695735E-01
  4.685301E-01
  4.707087E-01
  4.697912E-01
  4.719230E-01
  4.706544E-01
  4.721043E-01
  4.699433E-01
  4.705275E-01
  4.677929E-01
  4.682840E-01
  4.659754E-01
  4.672897E-01
  4.659680E-01
  4.681724E-01
  4.674389E-01
  4.698318E-01
  4.689076E-01
  4.708436E-01
  4.693538E-01
  4.707637E-01
  4.688859E-01
  4.700770E-01
  4.681225E-01
  4.693247E-01
  4.674237E-01
  4.687089E-01
  4.669389E-01
  4.684286E-01
  4.669359E-01
  4.687285E-01
  4.674772E-01
  4.693568E-01
  4.679850E-01
  4.695570E-01
  4.677896E-01
  4.690235E-01
  4.671109E-01
  4.684611E-01
  4.668946E-01
  4.686953E-01
  4.675097E-01
  4.694666E-01
  4.681372E-01
  4.696863E-01
  4.678208E-01
  4.688913E-01
  4.667731E-01
  4.679061E-01
  4.661437E-01
  4.677987E-01
  4.639078E-01
  4.660000E-01
  4.654696E-01
  4.677612E-01
  4.670476E-01
  4.689158E-01
  4.677193E-01
  4.691879E-01
  4.677391E-01
  4.690955E-01
  4.676371E-01
  4.690637E-01
  4.677633E-01
  4.694540E-01
  4.685092E-01
  4.705647E-01
  4.698484E-01
  4.718373E-01
  4.706630E-01
  4.718333E-01
  4.696533E-01
  4.699002E-01
  4.671493E-01
  4.673473E-01
  4.650750E-01
  4.661225E-01
  4.648193E-01
  4.667085E-01
  4.659638E-01
  4.681004E-01
  4.673678E-01
  4.693948E-01
  4.685116E-01
  4.703570E-01
  4.692128E-01
  4.706621E-01
  4.689815E-01
  4.698314E-01
  4.676349E-01
  4.682133E-01
  4.660970E-01
  4.671117E-01
  4.656796E-01
  4.674398E-01
  4.666105E-01
  4.686740E-01
  4.677838E-01
  4.694640E-01
  4.680002E-01
  4.690987E-01
  4.672257E-01
  4.682125E-01
  4.665534E-01
  4.679958E-01
  4.668564E-01
  4.686665E-01
  4.675650E-01
  4.690151E-01
  4.672361E-01
  4.679034E-01
  4.655093E-01
  4.659634E-01
  4.638627E-01
  4.650498E-01
  4.662579E-01
  4.676373E-01
  4.667909E-01
  4.682100E-01
  4.672489E-01
  4.684781E-01
  4.673447E-01
  4.684829E-01
  4.673498E-01
  4.685429E-01
  4.674720E-01
  4.687180E-01
  4.677222E-01
  4.691223E-01
  4.683906E-01
  4.701209E-01
  4.696570E-01
  4.714253E-01
  4.706460E-01
  4.717434E-01
  4.700857E-01
  4.703535E-01
  4.681831E-01
  4.684285E-01
  4.667366E-01
  4.678096E-01
  4.670423E-01
  4.688779E-01
  4.685302E-01
  4.703837E-01
  4.697124E-01
  4.710388E-01
  4.697967E-01
  4.706400E-01
  4.690743E-01
  4.697628E-01
  4.681756E-01
  4.689254E-01
  4.674454E-01
  4.683378E-01
  4.670446E-01
  4.681739E-01
  4.671492E-01
  4.685266E-01
  4.676582E-01
  4.690415E-01
  4.680143E-01
  4.691217E-01
  4.678004E-01
  4.687101E-01
  4.673721E-01
  4.684636E-01
  4.674465E-01
  4.688809E-01
  4.680974E-01
  4.695598E-01
  4.685713E-01
  4.696457E-01
  4.681941E-01
  4.688593E-01
  4.671627E-01
  4.678083E-01
  4.663155E-01
  4.673266E-01
  4.639503E-01
  4.654705E-01
  4.653558E-01
  4.673091E-01
  4.672627E-01
  4.689693E-01
  4.684710E-01
  4.696441E-01
  4.686358E-01
  4.693982E-01
  4.681331E-01
  4.688353E-01
  4.677332E-01
  4.688129E-01
  4.682329E-01
  4.698405E-01
  4.696111E-01
  4.712226E-01
  4.705669E-01
  4.713751E-01
  4.697328E-01
  4.696490E-01
  4.674740E-01
  4.673705E-01
  4.656742E-01
  4.663754E-01
  4.655543E-01
  4.669653E-01
  4.665573E-01
  4.680881E-01
  4.676089E-01
  4.690035E-01
  4.683989E-01
  4.696703E-01
  4.688744E-01
  4.698157E-01
  4.685430E-01
  4.689443E-01
  4.672205E-01
  4.674180E-01
  4.658306E-01
  4.664877E-01
  4.655593E-01
  4.668894E-01
  4.664670E-01
  4.680182E-01
  4.675082E-01
  4.687292E-01
  4.677730E-01
  4.685783E-01
  4.673617E-01
  4.681330E-01
  4.671065E-01
  4.682142E-01
  4.675350E-01
  4.688453E-01
  4.681005E-01
  4.690342E-01
  4.676674E-01
  4.678981E-01
  4.659628E-01
  4.659550E-01
  4.642162E-01
  4.648161E-01
  4.666133E-01
  4.675119E-01
  4.669834E-01
  4.680047E-01
  4.674886E-01
  4.684269E-01
  4.677672E-01
  4.685411E-01
  4.677273E-01
  4.683777E-01
  4.674897E-01
  4.681449E-01
  4.673811E-01
  4.683093E-01
  4.679514E-01
  4.693314E-01
  4.693203E-01
  4.707759E-01
  4.704627E-01
  4.712555E-01
  4.700763E-01
  4.700523E-01
  4.683610E-01
  4.682893E-01
  4.670181E-01
  4.676855E-01
  4.672333E-01
  4.685600E-01
  4.684465E-01
  4.697480E-01
  4.693107E-01
  4.701213E-01
  4.691706E-01
  4.695588E-01
  4.683370E-01
  4.686138E-01
  4.674132E-01
  4.678050E-01
  4.667803E-01
  4.673878E-01
  4.666040E-01
  4.674571E-01
  4.668887E-01
  4.678813E-01
  4.673367E-01
  4.682258E-01
  4.674827E-01
  4.681520E-01
  4.672594E-01
  4.679231E-01
  4.671917E-01
  4.681407E-01
  4.677225E-01
  4.688981E-01
  4.685296E-01
  4.695462E-01
  4.688465E-01
  4.694475E-01
  4.683534E-01
  4.686692E-01
  4.674477E-01
  4.677992E-01
  4.667492E-01
  4.673629E-01
  4.646506E-01
  4.657655E-01
  4.658652E-01
  4.673255E-01
  4.674836E-01
  4.687324E-01
  4.684751E-01
  4.691975E-01
  4.684056E-01
  4.686855E-01
  4.676314E-01
  4.678950E-01
  4.670950E-01
  4.678484E-01
  4.676700E-01
  4.690132E-01
  4.692057E-01
  4.705471E-01
  4.703035E-01
  4.708419E-01
  4.696191E-01
  4.692626E-01
  4.674739E-01
  4.670233E-01
  4.656045E-01
  4.658385E-01
  4.651937E-01
  4.660820E-01
  4.658538E-01
  4.669199E-01
  4.667133E-01
  4.677427E-01
  4.674904E-01
  4.684419E-01
  4.680112E-01
  4.686305E-01
  4.677304E-01
  4.678453E-01
  4.665602E-01
  4.665485E-01
  4.654533E-01
  4.658958E-01
  4.653760E-01
  4.663396E-01
  4.661456E-01
  4.671792E-01
  4.668307E-01
  4.675821E-01
  4.669430E-01
  4.674967E-01
  4.668087E-01
  4.674647E-01
  4.669843E-01
  4.678736E-01
  4.675578E-01
  4.684572E-01
  4.679468E-01
  4.684538E-01
  4.674259E-01
  4.674166E-01
  4.660199E-01
  4.659100E-01
  4.647349E-01
  4.651360E-01
  4.676916E-01
  4.681661E-01
  4.678132E-01
  4.681724E-01
  4.677047E-01
  4.679599E-01
  4.674024E-01
  4.675848E-01
  4.669775E-01
  4.671456E-01
  4.665805E-01
  4.668764E-01
  4.665529E-01
  4.672120E-01
  4.673378E-01
  4.684413E-01
  4.688720E-01
  4.700045E-01
  4.701087E-01
  4.705842E-01
  4.698426E-01
  4.695042E-01
  4.682063E-01
  4.677187E-01
  4.667000E-01
  4.668115E-01
  4.665191E-01
  4.672783E-01
  4.674015E-01
  4.682788E-01
  4.682451E-01
  4.687749E-01
  4.683119E-01
  4.684329E-01
  4.676586E-01
  4.676098E-01
  4.668208E-01
  4.669005E-01
  4.663500E-01
  4.667290E-01
  4.664777E-01
  4.670897E-01
  4.669469E-01
  4.675094E-01
  4.671663E-01
  4.674335E-01
  4.667962E-01
  4.668800E-01
  4.662555E-01
  4.665735E-01
  4.663522E-01
  4.671242E-01
  4.672621E-01
  4.681786E-01
  4.681973E-01
  4.687723E-01
  4.683433E-01
  4.685089E-01
  4.678273E-01
  4.679482E-01
  4.674021E-01
  4.677555E-01
  4.674410E-01
  4.679517E-01
  4.660890E-01
  4.666456E-01
  4.669692E-01
  4.675401E-01
  4.677238E-01
  4.680332E-01
  4.678784E-01
  4.678243E-01
  4.673408E-01
  4.670601E-01
  4.665175E-01
  4.663912E-01
  4.662225E-01
  4.666387E-01
  4.670726E-01
  4.680038E-01
  4.687133E-01
  4.695698E-01
  4.698232E-01
  4.699118E-01
  4.692474E-01
  4.684818E-01
  4.672300E-01
  4.662727E-01
  4.652399E-01
  4.648150E-01
  4.644619E-01
  4.646962E-01
  4.648699E-01
  4.654653E-01
  4.658596E-01
  4.665725E-01
  4.669894E-01
  4.675992E-01
  4.677464E-01
  4.679171E-01
  4.675245E-01
  4.671893E-01
  4.664772E-01
  4.661114E-01
  4.656594E-01
  4.657386E-01
  4.657462E-01
  4.661369E-01
  4.662188E-01
  4.664604E-01
  4.662707E-01
  4.662555E-01
  4.659382E-01
  4.659760E-01
  4.658709E-01
  4.662042E-01
  4.663803E-01
  4.668936E-01
  4.670932E-01
  4.674595E-01
  4.673696E-01
  4.673676E-01
  4.669179E-01
  4.666557E-01
  4.661161E-01
  4.659632E-01
  4.657081E-01
  4.659445E-01
  4.693848E-01
  4.690982E-01
  4.690728E-01
  4.683252E-01
  4.679755E-01
  4.670761E-01
  4.667363E-01
  4.659700E-01
  4.658416E-01
  4.653299E-01
  4.654820E-01
  4.652762E-01
  4.657664E-01
  4.659289E-01
  4.667911E-01
  4.672702E-01
  4.683087E-01
  4.687395E-01
  4.694582E-01
  4.693198E-01
  4.693212E-01
  4.684771E-01
  4.679553E-01
  4.668975E-01
  4.665140E-01
  4.658940E-01
  4.661220E-01
  4.661308E-01
  4.668623E-01
  4.671521E-01
  4.679048E-01
  4.679762E-01
  4.683375E-01
  4.679418E-01
  4.678695E-01
  4.671747E-01
  4.670077E-01
  4.664431E-01
  4.665935E-01
  4.664429E-01
  4.669806E-01
  4.670670E-01
  4.676042E-01
  4.674319E-01
  4.675129E-01
  4.668183E-01
  4.664781E-01
  4.656145E-01
  4.654393E-01
  4.650525E-01
  4.655401E-01
  4.658101E-01
  4.667541E-01
  4.671521E-01
  4.678802E-01
  4.678213E-01
  4.680342E-01
  4.675949E-01
  4.676928E-01
  4.674252E-01
  4.678898E-01
  4.680212E-01
  4.687497E-01
  4.689000E-01
  4.678424E-01
  4.674635E-01
  4.682042E-01
  4.675585E-01
  4.679970E-01
  4.670711E-01
  4.672860E-01
  4.662088E-01
  4.663559E-01
  4.653123E-01
  4.656184E-01
  4.648745E-01
  4.656075E-01
  4.653636E-01
  4.665793E-01
  4.666944E-01
  4.680507E-01
  4.680323E-01
  4.689825E-01
  4.683479E-01
  4.685859E-01
  4.672854E-01
  4.670408E-01
  4.655363E-01
  4.653938E-01
  4.642528E-01
  4.646379E-01
  4.640764E-01
  4.650022E-01
  4.648888E-01
  4.661451E-01
  4.662256E-01
  4.675084E-01
  4.674128E-01
  4.683069E-01
  4.676588E-01
  4.679561E-01
  4.668292E-01
  4.669095E-01
  4.658871E-01
  4.663337E-01
  4.657779E-01
  4.665940E-01
  4.661611E-01
  4.668148E-01
  4.660188E-01
  4.662754E-01
  4.652229E-01
  4.654759E-01
  4.646840E-01
  4.653785E-01
  4.650727E-01
  4.661606E-01
  4.660612E-01
  4.671365E-01
  4.668332E-01
  4.675857E-01
  4.669353E-01
  4.674104E-01
  4.666239E-01
  4.671335E-01
  4.665292E-01
  4.672986E-01
  4.669362E-01
  4.709502E-01
  4.696906E-01
  4.700821E-01
  4.682060E-01
  4.682014E-01
  4.662002E-01
  4.663230E-01
  4.646360E-01
  4.651768E-01
  4.639383E-01
  4.649085E-01
  4.640561E-01
  4.653634E-01
  4.647997E-01
  4.663424E-01
  4.659428E-01
  4.675483E-01
  4.670776E-01
  4.684600E-01
  4.676270E-01
  4.685603E-01
  4.672774E-01
  4.678587E-01
  4.664053E-01
  4.670403E-01
  4.658535E-01
  4.669056E-01
  4.661892E-01
  4.676552E-01
  4.671974E-01
  4.686996E-01
  4.680354E-01
  4.691249E-01
  4.679334E-01
  4.685114E-01
  4.669620E-01
  4.674418E-01
  4.660912E-01
  4.670166E-01
  4.662283E-01
  4.676563E-01
  4.671410E-01
  4.685041E-01
  4.675786E-01
  4.682900E-01
  4.666611E-01
  4.668371E-01
  4.650211E-01
  4.654380E-01
  4.642402E-01
  4.654850E-01
  4.650940E-01
  4.669068E-01
  4.667121E-01
  4.683436E-01
  4.677081E-01
  4.688348E-01
  4.678295E-01
  4.688507E-01
  4.680187E-01
  4.693897E-01
  4.689080E-01
  4.704497E-01
  4.698426E-01
  4.689768E-01
  4.677984E-01
  4.688167E-01
  4.673716E-01
  4.681270E-01
  4.664791E-01
  4.671176E-01
  4.654375E-01
  4.661190E-01
  4.645567E-01
  4.654410E-01
  4.641735E-01
  4.654296E-01
  4.645635E-01
  4.661788E-01
  4.655551E-01
  4.672430E-01
  4.665064E-01
  4.679193E-01
  4.667998E-01
  4.677935E-01
  4.662951E-01
  4.670180E-01
  4.654033E-01
  4.661793E-01
  4.647667E-01
  4.658470E-01
  4.647851E-01
  4.662150E-01
  4.654675E-01
  4.671475E-01
  4.665487E-01
  4.682270E-01
  4.674325E-01
  4.687163E-01
  4.673926E-01
  4.681462E-01
  4.664558E-01
  4.671352E-01
  4.656922E-01
  4.668440E-01
  4.659075E-01
  4.673918E-01
  4.664768E-01
  4.676645E-01
  4.662578E-01
  4.669569E-01
  4.652550E-01
  4.659618E-01
  4.645675E-01
  4.657828E-01
  4.649521E-01
  4.666477E-01
  4.661207E-01
  4.679074E-01
  4.672726E-01
  4.688017E-01
  4.678312E-01
  4.690285E-01
  4.678063E-01
  4.688821E-01
  4.676738E-01
  4.688534E-01
  4.677580E-01
  4.714747E-01
  4.698034E-01
  4.701941E-01
  4.680590E-01
  4.682023E-01
  4.660670E-01
  4.664245E-01
  4.646440E-01
  4.654128E-01
  4.640322E-01
  4.651510E-01
  4.640599E-01
  4.654139E-01
  4.645138E-01
  4.660194E-01
  4.652278E-01
  4.667880E-01
  4.659854E-01
  4.674641E-01
  4.665177E-01
  4.678149E-01
  4.666875E-01
  4.678476E-01
  4.666632E-01
  4.678648E-01
  4.668140E-01
  4.682097E-01
  4.673628E-01
  4.689107E-01
  4.681039E-01
  4.695352E-01
  4.684412E-01
  4.694455E-01
  4.678649E-01
  4.684405E-01
  4.666156E-01
  4.672259E-01
  4.657399E-01
  4.669286E-01
  4.661142E-01
  4.678781E-01
  4.673659E-01
  4.690533E-01
  4.680900E-01
  4.690710E-01
  4.673479E-01
  4.677400E-01
  4.657758E-01
  4.663487E-01
  4.649377E-01
  4.662817E-01
  4.656529E-01
  4.675977E-01
  4.672667E-01
  4.691867E-01
  4.685859E-01
  4.701298E-01
  4.691941E-01
  4.705477E-01
  4.695919E-01
  4.710388E-01
  4.701760E-01
  4.715935E-01
  4.704982E-01
  4.688177E-01
  4.677497E-01
  4.684043E-01
  4.673460E-01
  4.679787E-01
  4.668831E-01
  4.674658E-01
  4.663027E-01
  4.668053E-01
  4.655790E-01
  4.660841E-01
  4.649700E-01
  4.657090E-01
  4.649146E-01
  4.659848E-01
  4.654490E-01
  4.666441E-01
  4.660819E-01
  4.671257E-01
  4.663435E-01
  4.671630E-01
  4.662072E-01
  4.669380E-01
  4.659863E-01
  4.667964E-01
  4.659632E-01
  4.668913E-01
  4.661501E-01
  4.671426E-01
  4.664556E-01
  4.675087E-01
  4.668802E-01
  4.679477E-01
  4.672312E-01
  4.680725E-01
  4.670173E-01
  4.675056E-01
  4.662229E-01
  4.667272E-01
  4.657367E-01
  4.667279E-01
  4.662475E-01
  4.675815E-01
  4.671493E-01
  4.682257E-01
  4.673354E-01
  4.679249E-01
  4.666838E-01
  4.671576E-01