# vtk DataFile Version 2.0
title
ASCII
DATASET STRUCTURED_GRID
DIMENSIONS   64   64    1
POINTS   4096  float
  0.000000E+00  0.000000E+00  0.000000E+00
  0.000000E+00  3.906250E-01  0.000000E+00
  0.000000E+00  7.812500E-01  0.000000E+00
  0.000000E+00  1.171875E+00  0.000000E+00
  0.000000E+00  1.562500E+00  0.000000E+00
  0.000000E+00  1.953125E+00  0.000000E+00
  0.000000E+00  2.343750E+00  0.000000E+00
  0.000000E+00  2.734375E+00  0.000000E+00
  0.000000E+00  3.125000E+00  0.000000E+00
  0.000000E+00  3.515625E+00  0.000000E+00
  0.000000E+00  3.906250E+00  0.000000E+00
  0.000000E+00  4.296875E+00  0.000000E+00
  0.000000E+00  4.687500E+00  0.000000E+00
  0.000000E+00  5.078125E+00  0.000000E+00
  0.000000E+00  5.468750E+00  0.000000E+00
  0.000000E+00  5.859375E+00  0.000000E+00
  0.000000E+00  6.250000E+00  0.000000E+00
  0.000000E+00  6.640625E+00  0.000000E+00
  0.000000E+00  7.031250E+00  0.000000E+00
  0.000000E+00  7.421875E+00  0.000000E+00
  0.000000E+00  7.812500E+00  0.000000E+00
  0.000000E+00  8.203125E+00  0.000000E+00
  0.000000E+00  8.593750E+00  0.000000E+00
  0.000000E+00  8.984375E+00  0.000000E+00
  0.000000E+00  9.375000E+00  0.000000E+00
  0.000000E+00  9.765625E+00  0.000000E+00
  0.000000E+00  1.015625E+01  0.000000E+00
  0.000000E+00  1.054688E+01  0.000000E+00
  0.000000E+00  1.093750E+01  0.000000E+00
  0.000000E+00  1.132812E+01  0.000000E+00
  0.000000E+00  1.171875E+01  0.000000E+00
  0.000000E+00  1.210938E+01  0.000000E+00
  0.000000E+00  1.250000E+01  0.000000E+00
  0.000000E+00  1.289062E+01  0.000000E+00
  0.000000E+00  1.328125E+01  0.000000E+00
  0.000000E+00  1.367188E+01  0.000000E+00
  0.000000E+00  1.406250E+01  0.000000E+00
  0.000000E+00  1.445312E+01  0.000000E+00
  0.000000E+00  1.484375E+01  0.000000E+00
  0.000000E+00  1.523438E+01  0.000000E+00
  0.000000E+00  1.562500E+01  0.000000E+00
  0.000000E+00  1.601562E+01  0.000000E+00
  0.000000E+00  1.640625E+01  0.000000E+00
  0.000000E+00  1.679688E+01  0.000000E+00
  0.000000E+00  1.718750E+01  0.000000E+00
  0.000000E+00  1.757812E+01  0.000000E+00
  0.000000E+00  1.796875E+01  0.000000E+00
  0.000000E+00  1.835938E+01  0.000000E+00
  0.000000E+00  1.875000E+01  0.000000E+00
  0.000000E+00  1.914062E+01  0.000000E+00
  0.000000E+00  1.953125E+01  0.000000E+00
  0.000000E+00  1.992188E+01  0.000000E+00
  0.000000E+00  2.031250E+01  0.000000E+00
  0.000000E+00  2.070312E+01  0.000000E+00
  0.000000E+00  2.109375E+01  0.000000E+00
  0.000000E+00  2.148438E+01  0.000000E+00
  0.000000E+00  2.187500E+01  0.000000E+00
  0.000000E+00  2.226562E+01  0.000000E+00
  0.000000E+00  2.265625E+01  0.000000E+00
  0.000000E+00  2.304688E+01  0.000000E+00
  0.000000E+00  2.343750E+01  0.000000E+00
  0.000000E+00  2.382812E+01  0.000000E+00
  0.000000E+00  2.421875E+01  0.000000E+00
  0.000000E+00  2.460938E+01  0.000000E+00
  3.906250E-01  0.000000E+00  0.000000E+00
  3.906250E-01  3.906250E-01  0.000000E+00
  3.906250E-01  7.812500E-01  0.000000E+00
  3.906250E-01  1.171875E+00  0.000000E+00
  3.906250E-01  1.562500E+00  0.000000E+00
  3.906250E-01  1.953125E+00  0.000000E+00
  3.906250E-01  2.343750E+00  0.000000E+00
  3.906250E-01  2.734375E+00  0.000000E+00
  3.906250E-01  3.125000E+00  0.000000E+00
  3.906250E-01  3.515625E+00  0.000000E+00
  3.906250E-01  3.906250E+00  0.000000E+00
  3.906250E-01  4.296875E+00  0.000000E+00
  3.906250E-01  4.687500E+00  0.000000E+00
  3.906250E-01  5.078125E+00  0.000000E+00
  3.906250E-01  5.468750E+00  0.000000E+00
  3.906250E-01  5.859375E+00  0.000000E+00
  3.906250E-01  6.250000E+00  0.000000E+00
  3.906250E-01  6.640625E+00  0.000000E+00
  3.906250E-01  7.031250E+00  0.000000E+00
  3.906250E-01  7.421875E+00  0.000000E+00
  3.906250E-01  7.812500E+00  0.000000E+00
  3.906250E-01  8.203125E+00  0.000000E+00
  3.906250E-01  8.593750E+00  0.000000E+00
  3.906250E-01  8.984375E+00  0.000000E+00
  3.906250E-01  9.375000E+00  0.000000E+00
  3.906250E-01  9.765625E+00  0.000000E+00
  3.906250E-01  1.015625E+01  0.000000E+00
  3.906250E-01  1.054688E+01  0.000000E+00
  3.906250E-01  1.093750E+01  0.000000E+00
  3.906250E-01  1.132812E+01  0.000000E+00
  3.906250E-01  1.171875E+01  0.000000E+00
  3.906250E-01  1.210938E+01  0.000000E+00
  3.906250E-01  1.250000E+01  0.000000E+00
  3.906250E-01  1.289062E+01  0.000000E+00
  3.906250E-01  1.328125E+01  0.000000E+00
  3.906250E-01  1.367188E+01  0.000000E+00
  3.906250E-01  1.406250E+01  0.000000E+00
  3.906250E-01  1.445312E+01  0.000000E+00
  3.906250E-01  1.484375E+01  0.000000E+00
  3.906250E-01  1.523438E+01  0.000000E+00
  3.906250E-01  1.562500E+01  0.000000E+00
  3.906250E-01  1.601562E+01  0.000000E+00
  3.906250E-01  1.640625E+01  0.000000E+00
  3.906250E-01  1.679688E+01  0.000000E+00
  3.906250E-01  1.718750E+01  0.000000E+00
  3.906250E-01  1.757812E+01  0.000000E+00
  3.906250E-01  1.796875E+01  0.000000E+00
  3.906250E-01  1.835938E+01  0.000000E+00
  3.906250E-01  1.875000E+01  0.000000E+00
  3.906250E-01  1.914062E+01  0.000000E+00
  3.906250E-01  1.953125E+01  0.000000E+00
  3.906250E-01  1.992188E+01  0.000000E+00
  3.906250E-01  2.031250E+01  0.000000E+00
  3.906250E-01  2.070312E+01  0.000000E+00
  3.906250E-01  2.109375E+01  0.000000E+00
  3.906250E-01  2.148438E+01  0.000000E+00
  3.906250E-01  2.187500E+01  0.000000E+00
  3.906250E-01  2.226562E+01  0.000000E+00
  3.906250E-01  2.265625E+01  0.000000E+00
  3.906250E-01  2.304688E+01  0.000000E+00
  3.906250E-01  2.343750E+01  0.000000E+00
  3.906250E-01  2.382812E+01  0.000000E+00
  3.906250E-01  2.421875E+01  0.000000E+00
  3.906250E-01  2.460938E+01  0.000000E+00
  7.812500E-01  0.000000E+00  0.000000E+00
  7.812500E-01  3.906250E-01  0.000000E+00
  7.812500E-01  7.812500E-01  0.000000E+00
  7.812500E-01  1.171875E+00  0.000000E+00
  7.812500E-01  1.562500E+00  0.000000E+00
  7.812500E-01  1.953125E+00  0.000000E+00
  7.812500E-01  2.343750E+00  0.000000E+00
  7.812500E-01  2.734375E+00  0.000000E+00
  7.812500E-01  3.125000E+00  0.000000E+00
  7.812500E-01  3.515625E+00  0.000000E+00
  7.812500E-01  3.906250E+00  0.000000E+00
  7.812500E-01  4.296875E+00  0.000000E+00
  7.812500E-01  4.687500E+00  0.000000E+00
  7.812500E-01  5.078125E+00  0.000000E+00
  7.812500E-01  5.468750E+00  0.000000E+00
  7.812500E-01  5.859375E+00  0.000000E+00
  7.812500E-01  6.250000E+00  0.000000E+00
  7.812500E-01  6.640625E+00  0.000000E+00
  7.812500E-01  7.031250E+00  0.000000E+00
  7.812500E-01  7.421875E+00  0.000000E+00
  7.812500E-01  7.812500E+00  0.000000E+00
  7.812500E-01  8.203125E+00  0.000000E+00
  7.812500E-01  8.593750E+00  0.000000E+00
  7.812500E-01  8.984375E+00  0.000000E+00
  7.812500E-01  9.375000E+00  0.000000E+00
  7.812500E-01  9.765625E+00  0.000000E+00
  7.812500E-01  1.015625E+01  0.000000E+00
  7.812500E-01  1.054688E+01  0.000000E+00
  7.812500E-01  1.093750E+01  0.000000E+00
  7.812500E-01  1.132812E+01  0.000000E+00
  7.812500E-01  1.171875E+01  0.000000E+00
  7.812500E-01  1.210938E+01  0.000000E+00
  7.812500E-01  1.250000E+01  0.000000E+00
  7.812500E-01  1.289062E+01  0.000000E+00
  7.812500E-01  1.328125E+01  0.000000E+00
  7.812500E-01  1.367188E+01  0.000000E+00
  7.812500E-01  1.406250E+01  0.000000E+00
  7.812500E-01  1.445312E+01  0.000000E+00
  7.812500E-01  1.484375E+01  0.000000E+00
  7.812500E-01  1.523438E+01  0.000000E+00
  7.812500E-01  1.562500E+01  0.000000E+00
  7.812500E-01  1.601562E+01  0.000000E+00
  7.812500E-01  1.640625E+01  0.000000E+00
  7.812500E-01  1.679688E+01  0.000000E+00
  7.812500E-01  1.718750E+01  0.000000E+00
  7.812500E-01  1.757812E+01  0.000000E+00
  7.812500E-01  1.796875E+01  0.000000E+00
  7.812500E-01  1.835938E+01  0.000000E+00
  7.812500E-01  1.875000E+01  0.000000E+00
  7.812500E-01  1.914062E+01  0.000000E+00
  7.812500E-01  1.953125E+01  0.000000E+00
  7.812500E-01  1.992188E+01  0.000000E+00
  7.812500E-01  2.031250E+01  0.000000E+00
  7.812500E-01  2.070312E+01  0.000000E+00
  7.812500E-01  2.109375E+01  0.000000E+00
  7.812500E-01  2.148438E+01  0.000000E+00
  7.812500E-01  2.187500E+01  0.000000E+00
  7.812500E-01  2.226562E+01  0.000000E+00
  7.812500E-01  2.265625E+01  0.000000E+00
  7.812500E-01  2.304688E+01  0.000000E+00
  7.812500E-01  2.343750E+01  0.000000E+00
  7.812500E-01  2.382812E+01  0.000000E+00
  7.812500E-01  2.421875E+01  0.000000E+00
  7.812500E-01  2.460938E+01  0.000000E+00
  1.171875E+00  0.000000E+00  0.000000E+00
  1.171875E+00  3.906250E-01  0.000000E+00
  1.171875E+00  7.812500E-01  0.000000E+00
  1.171875E+00  1.171875E+00  0.000000E+00
  1.171875E+00  1.562500E+00  0.000000E+00
  1.171875E+00  1.953125E+00  0.000000E+00
  1.171875E+00  2.343750E+00  0.000000E+00
  1.171875E+00  2.734375E+00  0.000000E+00
  1.171875E+00  3.125000E+00  0.000000E+00
  1.171875E+00  3.515625E+00  0.000000E+00
  1.171875E+00  3.906250E+00  0.000000E+00
  1.171875E+00  4.296875E+00  0.000000E+00
  1.171875E+00  4.687500E+00  0.000000E+00
  1.171875E+00  5.078125E+00  0.000000E+00
  1.171875E+00  5.468750E+00  0.000000E+00
  1.171875E+00  5.859375E+00  0.000000E+00
  1.171875E+00  6.250000E+00  0.000000E+00
  1.171875E+00  6.640625E+00  0.000000E+00
  1.171875E+00  7.031250E+00  0.000000E+00
  1.171875E+00  7.421875E+00  0.000000E+00
  1.171875E+00  7.812500E+00  0.000000E+00
  1.171875E+00  8.203125E+00  0.000000E+00
  1.171875E+00  8.593750E+00  0.000000E+00
  1.171875E+00  8.984375E+00  0.000000E+00
  1.171875E+00  9.375000E+00  0.000000E+00
  1.171875E+00  9.765625E+00  0.000000E+00
  1.171875E+00  1.015625E+01  0.000000E+00
  1.171875E+00  1.054688E+01  0.000000E+00
  1.171875E+00  1.093750E+01  0.000000E+00
  1.171875E+00  1.132812E+01  0.000000E+00
  1.171875E+00  1.171875E+01  0.000000E+00
  1.171875E+00  1.210938E+01  0.000000E+00
  1.171875E+00  1.250000E+01  0.000000E+00
  1.171875E+00  1.289062E+01  0.000000E+00
  1.171875E+00  1.328125E+01  0.000000E+00
  1.171875E+00  1.367188E+01  0.000000E+00
  1.171875E+00  1.406250E+01  0.000000E+00
  1.171875E+00  1.445312E+01  0.000000E+00
[...]
POINT_DATA   4096
SCALARS CON  float  1
LOOKUP_TABLE default
  4.695403E-01
  4.683726E-01
  4.705998E-01
  4.691756E-01
  4.709200E-01
  4.689710E-01
  4.703156E-01
  4.681828E-01
  4.695599E-01
  4.676137E-01
  4.692535E-01
  4.675896E-01
  4.695081E-01
  4.681121E-01
  4.702691E-01
  4.690354E-01
  4.712092E-01
  4.697841E-01
  4.715388E-01
  4.695146E-01
  4.706029E-01
  4.679932E-01
  4.687132E-01
  4.660319E-01
  4.669745E-01
  4.647311E-01
  4.662037E-01
  4.644609E-01
  4.663251E-01
  4.648453E-01
  4.668744E-01
  4.655103E-01
  4.676372E-01
  4.663438E-01
  4.684676E-01
  4.670397E-01
  4.688663E-01
  4.670025E-01
  4.683405E-01
  4.660635E-01
  4.671941E-01
  4.650035E-01
  4.665260E-01
  4.649563E-01
  4.671796E-01
  4.662085E-01
  4.687671E-01
  4.677804E-01
  4.699925E-01
  4.684568E-01
  4.701132E-01
  4.682089E-01
  4.698003E-01
  4.681227E-01
  4.700931E-01
  4.687375E-01
  4.707846E-01
  4.691802E-01
  4.707235E-01
  4.685554E-01
  4.697114E-01
  4.675060E-01
  4.690069E-01
  4.674045E-01
  4.712716E-01
  4.704748E-01
  4.715648E-01
  4.702174E-01
  4.706880E-01
  4.688634E-01
  4.691523E-01
  4.674836E-01
  4.681928E-01
  4.670644E-01
  4.682857E-01
  4.675459E-01
  4.690122E-01
  4.684097E-01
  4.699526E-01
  4.693829E-01
  4.708853E-01
  4.701440E-01
  4.712987E-01
  4.700416E-01
  4.705916E-01
  4.687750E-01
  4.689566E-01
  4.670677E-01
  4.674980E-01
  4.661128E-01
  4.671651E-01
  4.663570E-01
  4.678031E-01
  4.671315E-01
  4.684642E-01
  4.675076E-01
  4.684992E-01
  4.672549E-01
  4.680792E-01
  4.667944E-01
  4.676600E-01
  4.664321E-01
  4.673193E-01
  4.660710E-01
  4.669374E-01
  4.657363E-01
  4.667759E-01
  4.658842E-01
  4.673153E-01
  4.667933E-01
  4.684588E-01
  4.679632E-01
  4.694526E-01
  4.686652E-01
  4.698808E-01
  4.689596E-01
  4.702336E-01
  4.695171E-01
  4.710159E-01
  4.703948E-01
  4.717591E-01
  4.707756E-01
  4.716615E-01
  4.702609E-01
  4.709559E-01
  4.696670E-01
  4.707245E-01
  4.698853E-01
  4.681604E-01
  4.685342E-01
  4.694112E-01
  4.695492E-01
  4.698902E-01
  4.694127E-01
  4.692715E-01
  4.685723E-01
  4.684834E-01
  4.680357E-01
  4.682896E-01
  4.681879E-01
  4.687474E-01
  4.689021E-01
  4.696637E-01
  4.699366E-01
  4.706736E-01
  4.707147E-01
  4.709822E-01
  4.703525E-01
  4.698598E-01
  4.685431E-01
  4.676001E-01
  4.661799E-01
  4.654999E-01
  4.646341E-01
  4.646597E-01
  4.644945E-01
  4.650934E-01
  4.653148E-01
  4.661166E-01
  4.663976E-01
  4.671571E-01
  4.673114E-01
  4.678494E-01
  4.676679E-01
  4.677575E-01
  4.670625E-01
  4.666707E-01
  4.656518E-01
  4.652086E-01
  4.644718E-01
  4.646208E-01
  4.646739E-01
  4.656329E-01
  4.663205E-01
  4.675832E-01
  4.681810E-01
  4.690168E-01
  4.690131E-01
  4.692901E-01
  4.689643E-01
  4.692501E-01
  4.692160E-01
  4.698989E-01
  4.701312E-01
  4.707559E-01
  4.705440E-01
  4.704484E-01
  4.694849E-01
  4.688886E-01
  4.678770E-01
  4.677193E-01
  4.674822E-01
  4.695171E-01
  4.702712E-01
  4.699782E-01
  4.702081E-01
  4.692744E-01
  4.689781E-01
  4.678149E-01
  4.676530E-01
  4.669260E-01
  4.673512E-01
  4.671940E-01
  4.680533E-01
  4.681588E-01
  4.691429E-01
  4.692919E-01
  4.702681E-01
  4.703363E-01
  4.711000E-01
  4.707706E-01
  4.709515E-01
  4.699334E-01
  4.694660E-01
  4.680079E-01
  4.674385E-01
  4.662586E-01
  4.662841E-01
  4.658656E-01
  4.666294E-01
  4.667550E-01
  4.677646E-01
  4.678235E-01
  4.685234E-01
  4.681501E-01
  4.684221E-01
  4.677178E-01
  4.677920E-01
  4.670062E-01
  4.670702E-01
  4.663063E-01
  4.664150E-01
  4.657437E-01
  4.660341E-01
  4.656582E-01
  4.663373E-01
  4.663707E-01
  4.673748E-01
  4.675537E-01
  4.684833E-01
  4.684081E-01
  4.690169E-01
  4.686963E-01
  4.692445E-01
  4.690727E-01
  4.699011E-01
  4.699881E-01
  4.708916E-01
  4.707734E-01
  4.712106E-01
  4.705021E-01
  4.704294E-01
  4.694789E-01
  4.695219E-01
  4.689942E-01
  4.695916E-01
  4.662519E-01
  4.679806E-01
  4.676338E-01
  4.691829E-01
  4.683311E-01
  4.692688E-01
  4.679199E-01
  4.686157E-01
  4.673061E-01
  4.682529E-01
  4.672949E-01
  4.685974E-01
  4.679483E-01
  4.695014E-01
  4.690409E-01
  4.706945E-01
  4.701885E-01
  4.715819E-01
  4.705638E-01
  4.712259E-01
  4.693733E-01
  4.692736E-01
  4.669144E-01
  4.666918E-01
  4.646237E-01
  4.650296E-01
  4.637740E-01
  4.649998E-01
  4.644264E-01
  4.661179E-01
  4.657844E-01
  4.675250E-01
  4.670938E-01
  4.686173E-01
  4.678548E-01
  4.689331E-01
  4.676343E-01
  4.681500E-01
  4.663688E-01
  4.666056E-01
  4.648478E-01
  4.654448E-01
  4.643309E-01
  4.657193E-01
  4.653571E-01
  4.672719E-01
  4.670834E-01
  4.687923E-01
  4.681065E-01
  4.692059E-01
  4.680118E-01
  4.688764E-01
  4.677858E-01
  4.690180E-01
  4.683682E-01
  4.698788E-01
  4.691614E-01
  4.702103E-01
  4.687560E-01
  4.690418E-01
  4.670818E-01
  4.673229E-01
  4.658176E-01
  4.668673E-01
  4.676986E-01
  4.694445E-01
  4.682443E-01
  4.695731E-01
  4.678297E-01
  4.686938E-01
  4.667332E-01
  4.676980E-01
  4.661107E-01
  4.675918E-01
  4.665137E-01
  4.683895E-01
  4.675583E-01
  4.695630E-01
  4.687916E-01
  4.708075E-01
  4.699673E-01
  4.717661E-01
  4.705016E-01
  4.716702E-01
  4.696581E-01
  4.701236E-01
  4.676376E-01
  4.680002E-01
  4.658270E-01
  4.668470E-01
  4.655111E-01
  4.673425E-01
  4.666081E-01
  4.687192E-01
  4.679268E-01
  4.697128E-01
  4.684514E-01
  4.697559E-01
  4.680997E-01
  4.691421E-01
  4.673526E-01
  4.683582E-01
  4.665956E-01
  4.676796E-01
  4.660576E-01
  4.673612E-01
  4.660366E-01
  4.676779E-01
  4.666573E-01
  4.684818E-01
  4.674612E-01
  4.690985E-01
  4.677702E-01
  4.690994E-01
  4.675905E-01
  4.689482E-01
  4.676728E-01
  4.693729E-01
  4.683949E-01
  4.701974E-01
  4.690457E-01
  4.704255E-01
  4.687340E-01
  4.696460E-01
  4.677306E-01
  4.687468E-01
  4.672235E-01
  4.687669E-01
  4.647277E-01
  4.669985E-01
  4.661449E-01
  4.684027E-01
  4.672089E-01
  4.689691E-01
  4.673088E-01
  4.687700E-01
  4.670265E-01
  4.685892E-01
  4.670611E-01
  4.688870E-01
  4.676315E-01
  4.697230E-01
  4.687056E-01
  4.709587E-01
  4.699469E-01
  4.719659E-01
  4.704386E-01
  4.716991E-01
  4.693004E-01
  4.697700E-01
  4.668576E-01
  4.672247E-01
  4.646459E-01
  4.656926E-01
  4.639697E-01
  4.658599E-01
  4.648190E-01
  4.671553E-01
  4.663239E-01
  4.686760E-01
  4.677156E-01
  4.698215E-01
  4.685021E-01
  4.701380E-01
  4.682651E-01
  4.693363E-01
  4.669983E-01
  4.678235E-01
  4.655442E-01
  4.667463E-01
  4.650877E-01
  4.670062E-01
  4.659780E-01
  4.682780E-01
  4.672890E-01
  4.692929E-01
  4.677799E-01
  4.692091E-01
  4.672620E-01
  4.685385E-01
  4.667580E-01
  4.684367E-01
  4.671132E-01
  4.690897E-01
  4.677411E-01
  4.693258E-01
  4.673222E-01
  4.682086E-01
  4.657198E-01
  4.665284E-01
  4.644237E-01
  4.659701E-01
  4.665896E-01
  4.684407E-01
  4.671258E-01
  4.687755E-01
  4.671337E-01
  4.684696E-01
  4.666498E-01
  4.680042E-01
  4.663813E-01
  4.680345E-01
  4.667213E-01
  4.686330E-01
  4.675149E-01
  4.695823E-01
  4.686040E-01
  4.707819E-01
  4.698223E-01
  4.718399E-01
  4.704779E-01
  4.718614E-01
  4.697394E-01
  4.704167E-01
  4.678379E-01
  4.684487E-01
  4.662269E-01
  4.675294E-01
  4.661533E-01
  4.682423E-01
  4.674134E-01
  4.697125E-01
  4.687580E-01
  4.706800E-01
  4.692258E-01
  4.706545E-01
  4.688059E-01
  4.699801E-01
  4.680120E-01
  4.691719E-01
  4.672640E-01
  4.685422E-01
  4.668091E-01
  4.683175E-01
  4.668520E-01
  4.686208E-01
  4.673444E-01
  4.691699E-01
  4.677887E-01
  4.693723E-01
  4.676911E-01
  4.690261E-01
  4.672465E-01
  4.686812E-01
  4.671712E-01
  4.689465E-01
  4.677133E-01
  4.695815E-01
  4.682000E-01
  4.697097E-01
  4.678709E-01
  4.689771E-01
  4.669269E-01
  4.680864E-01
  4.663331E-01
  4.679260E-01
  4.640639E-01
  4.661015E-01
  4.654359E-01
  4.676957E-01
  4.669267E-01
  4.688535E-01
  4.676572E-01
  4.691853E-01
  4.676976E-01
  4.690716E-01
  4.675656E-01
  4.690458E-01
  4.677573E-01
  4.695427E-01
  4.685955E-01
  4.706685E-01
  4.698398E-01
  4.717577E-01
  4.704552E-01
  4.716306E-01
  4.694647E-01
  4.698648E-01
  4.672155E-01
  4.675527E-01
  4.652710E-01
  4.662980E-01
  4.648457E-01
  4.666509E-01
  4.657872E-01
  4.679370E-01
  4.671944E-01
  4.693004E-01
  4.684031E-01
  4.702660E-01
  4.690318E-01
  4.704570E-01
  4.687074E-01
  4.696117E-01
  4.674464E-01
  4.681549E-01
  4.660874E-01
  4.671845E-01
  4.657090E-01
  4.674515E-01
  4.665065E-01
  4.685295E-01
  4.675537E-01
  4.692654E-01
  4.678100E-01
  4.690326E-01
  4.672356E-01
  4.683682E-01
  4.667485E-01
  4.682442E-01
  4.670179E-01
  4.687602E-01
  4.674993E-01
  4.688885E-01
  4.670391E-01
  4.677859E-01
  4.654594E-01
  4.660735E-01
  4.640310E-01
  4.652843E-01
  4.663365E-01
  4.677581E-01
  4.668011E-01
  4.682327E-01
  4.671663E-01
  4.684360E-01
  4.672246E-01
  4.684119E-01
  4.671913E-01
  4.684261E-01
  4.672886E-01
  4.686352E-01
  4.676505E-01
  4.692063E-01
  4.684770E-01
  4.702791E-01
  4.696892E-01
  4.714170E-01
  4.704748E-01
  4.715946E-01
  4.699105E-01
  4.703460E-01
  4.682332E-01
  4.686286E-01
  4.668834E-01
  4.679512E-01
  4.669953E-01
  4.687603E-01
  4.682442E-01
  4.701145E-01
  4.693904E-01
  4.708360E-01
  4.696010E-01
  4.705713E-01
  4.689787E-01
  4.697411E-01
  4.680814E-01
  4.688872E-01
  4.673493E-01
  4.683324E-01
  4.670125E-01
  4.682380E-01
  4.671562E-01
  4.685731E-01
  4.675898E-01
  4.689809E-01
  4.678507E-01
  4.690185E-01
  4.676662E-01
  4.686977E-01
  4.673539E-01
  4.685465E-01
  4.674657E-01
  4.689292E-01
  4.680221E-01
  4.694848E-01
  4.683810E-01
  4.694948E-01
  4.679848E-01
  4.687502E-01
  4.670478E-01
  4.678278E-01
  4.663365E-01
  4.674572E-01
  4.641655E-01
  4.657088E-01
  4.654441E-01
  4.673510E-01
  4.671417E-01
  4.688317E-01
  4.682206E-01
  4.694305E-01
  4.683612E-01
  4.692155E-01
  4.679514E-01
  4.688069E-01
  4.677463E-01
  4.689736E-01
  4.683696E-01
  4.700108E-01
  4.696329E-01
  4.711942E-01
  4.703870E-01
  4.712305E-01
  4.695769E-01
  4.696606E-01
  4.675354E-01
  4.675561E-01
  4.657765E-01
  4.664374E-01
  4.654113E-01
  4.667579E-01
  4.662277E-01
  4.678424E-01
  4.673852E-01
  4.689403E-01
  4.683406E-01
  4.696841E-01
  4.687894E-01
  4.697428E-01
  4.683863E-01
  4.688798E-01
  4.671742E-01
  4.675349E-01
  4.659703E-01
  4.667266E-01
  4.657156E-01
  4.670386E-01
  4.664621E-01
  4.679864E-01
  4.673503E-01
  4.686040E-01
  4.675928E-01
  4.684956E-01
  4.672686E-01
  4.681509E-01
  4.670898E-01
  4.682474E-01
  4.674486E-01
  4.687265E-01
  4.678148E-01
  4.687300E-01
  4.672784E-01
  4.676222E-01
  4.657433E-01
  4.659518E-01
  4.642992E-01
  4.650620E-01
  4.667520E-01
  4.676898E-01
  4.670962E-01
  4.680810E-01
  4.674499E-01
  4.683385E-01
  4.675834E-01
  4.683476E-01
  4.674883E-01
  4.681855E-01
  4.673160E-01
  4.680849E-01
  4.673922E-01
  4.684459E-01
  4.681096E-01
  4.695075E-01
  4.693867E-01
  4.707595E-01
  4.703141E-01
  4.710947E-01
  4.699172E-01
  4.700162E-01
  4.683992E-01
  4.684266E-01
  4.671213E-01
  4.677455E-01
  4.671458E-01
  4.683907E-01
  4.681763E-01
  4.695023E-01
  4.690858E-01
  4.700151E-01
  4.691264E-01
  4.696194E-01
  4.684079E-01
  4.687271E-01
  4.674893E-01
  4.679052E-01
  4.668530E-01
  4.675079E-01
  4.667130E-01
  4.676064E-01
  4.669932E-01
  4.679778E-01
  4.673468E-01
  4.682132E-01
  4.674038E-01
  4.680966E-01
  4.671880E-01
  4.679058E-01
  4.671544E-01
  4.681202E-01
  4.676285E-01
  4.687747E-01
  4.683140E-01
  4.693169E-01
  4.685675E-01
  4.692087E-01
  4.681153E-01
  4.685114E-01
  4.673212E-01
  4.677768E-01
  4.667729E-01
  4.674872E-01
  4.648811E-01
  4.659527E-01
  4.659966E-01
  4.673520E-01
  4.674279E-01
  4.685798E-01
  4.682765E-01
  4.689596E-01
  4.681941E-01
  4.685134E-01
  4.675589E-01
  4.679127E-01
  4.672229E-01
  4.680249E-01
  4.678649E-01
  4.691361E-01
  4.692347E-01
  4.704412E-01
  4.701184E-01
  4.706148E-01
  4.694518E-01
  4.691834E-01
  4.675210E-01
  4.671320E-01
  4.657318E-01
  4.658891E-01
  4.651596E-01
  4.659520E-01
  4.657117E-01
  4.668076E-01
  4.667039E-01
  4.678114E-01
  4.676242E-01
  4.685565E-01
  4.680901E-01
  4.686405E-01
  4.677297E-01
  4.678580E-01
  4.666545E-01
  4.667081E-01
  4.656791E-01
  4.661117E-01
  4.655584E-01
  4.664295E-01
  4.661652E-01
  4.671209E-01
  4.667515E-01
  4.674841E-01
  4.668726E-01
  4.674349E-01
  4.667801E-01
  4.674325E-01
  4.669594E-01
  4.678092E-01
  4.674613E-01
  4.682907E-01
  4.677410E-01
  4.682056E-01
  4.672020E-01
  4.672364E-01
  4.659482E-01
  4.659371E-01
  4.648776E-01
  4.653334E-01
  4.677648E-01
  4.681875E-01
  4.678816E-01
  4.681686E-01
  4.677204E-01
  4.678835E-01
  4.673433E-01
  4.674509E-01
  4.668939E-01
  4.670301E-01
  4.665619E-01
  4.668674E-01
  4.666631E-01
  4.673190E-01
  4.675068E-01
  4.685126E-01
  4.689020E-01
  4.698660E-01
  4.699258E-01
  4.703080E-01
  4.696520E-01
  4.693557E-01
  4.682314E-01
  4.677949E-01
  4.668833E-01
  4.669389E-01
  4.666533E-01
  4.673007E-01
  4.674320E-01
  4.682428E-01
  4.682787E-01
  4.687920E-01
  4.684219E-01
  4.685220E-01
  4.678180E-01
  4.677215E-01
  4.669824E-01
  4.670039E-01
  4.664999E-01
  4.668169E-01
  4.666007E-01
  4.671304E-01
  4.669999E-01
  4.674670E-01
  4.671447E-01
  4.673505E-01
  4.667849E-01
  4.668558E-01
  4.663264E-01
  4.666153E-01
  4.664358E-01
  4.671082E-01
  4.672307E-01
  4.680306E-01
  4.680686E-01
  4.686022E-01
  4.682781E-01
  4.684644E-01
  4.679034E-01
  4.680130E-01
  4.675287E-01
  4.678149E-01
  4.675318E-01
  4.679756E-01
  4.661667E-01
  4.666095E-01
  4.669712E-01
  4.674511E-01
  4.676910E-01
  4.679195E-01
  4.678283E-01
  4.677075E-01
  4.673149E-01
  4.670053E-01
  4.665897E-01
  4.664523E-01
  4.663960E-01
  4.667498E-01
  4.672168E-01
  4.679978E-01
  4.686706E-01
  4.693502E-01
  4.695984E-01
  4.695983E-01
  4.690523E-01
  4.683199E-01
  4.672662E-01
  4.663532E-01
  4.654611E-01
  4.649835E-01
  4.646796E-01
  4.648130E-01
  4.650425E-01
  4.655781E-01
  4.660643E-01
  4.667146E-01
  4.671748E-01
  4.676528E-01
  4.677963E-01
  4.678438E-01
  4.675152E-01
  4.671527E-01
  4.665803E-01
  4.662037E-01
  4.658398E-01
  4.658150E-01
  4.658223E-01
  4.660673E-01
  4.661706E-01
  4.663372E-01
  4.662527E-01
  4.662221E-01
  4.660247E-01
  4.660187E-01
  4.659817E-01
  4.662213E-01
  4.664364E-01
  4.668538E-01
  4.671128E-01
  4.674168E-01
  4.674227E-01
  4.673895E-01
  4.670540E-01
  4.667602E-01
  4.663132E-01
  4.660887E-01
  4.658781E-01
  4.660011E-01
  4.692470E-01
  4.688932E-01
  4.689627E-01
  4.682171E-01
  4.679849E-01
  4.670724E-01
  4.668154E-01
  4.659995E-01
  4.659273E-01
  4.653540E-01
  4.655634E-01
  4.653044E-01
  4.658583E-01
  4.659611E-01
  4.668607E-01
  4.672352E-01
  4.682609E-01
  4.685543E-01
  4.692664E-01
  4.690457E-01
  4.691354E-01
  4.683167E-01
  4.679698E-01
  4.669768E-01
  4.667521E-01
  4.661362E-01
  4.664408E-01
  4.663730E-01
  4.671172E-01
  4.672894E-01
  4.680365E-01
  4.679927E-01
  4.683695E-01
  4.678957E-01
  4.678854E-01
  4.671569E-01
  4.670813E-01
  4.664873E-01
  4.667049E-01
  4.664779E-01
  4.670275E-01
  4.669935E-01
  4.675288E-01
  4.672642E-01
  4.674114E-01
  4.667152E-01
  4.665249E-01
  4.657043E-01
  4.656627E-01
  4.652416E-01
  4.657485E-01
  4.658746E-01
  4.667775E-01
  4.670482E-01
  4.678277E-01
  4.677775E-01
  4.681683E-01
  4.678025E-01
  4.680522E-01
  4.677471E-01
  4.682079E-01
  4.681584E-01
  4.688012E-01
  4.687729E-01
  4.677050E-01
  4.672645E-01
  4.680343E-01
  4.674217E-01
  4.679488E-01
  4.670692E-01
  4.673494E-01
  4.662806E-01
  4.664611E-01
  4.654085E-01
  4.657405E-01
  4.649780E-01
  4.657163E-01
  4.654220E-01
  4.666077E-01
  4.666443E-01
  4.679582E-01
  4.678696E-01
  4.688077E-01
  4.681539E-01
  4.684460E-01
  4.671962E-01
  4.670621E-01
  4.656340E-01
  4.655886E-01
  4.644775E-01
  4.648990E-01
  4.643131E-01
  4.652378E-01
  4.650747E-01
  4.663027E-01
  4.662947E-01
  4.675062E-01
  4.672987E-01
  4.681438E-01
  4.674615E-01
  4.678232E-01
  4.667668E-01
  4.669601E-01
  4.659757E-01
  4.664352E-01
  4.657973E-01
  4.665442E-01
  4.660257E-01
  4.666877E-01
  4.659286E-01
  4.663053E-01
  4.653424E-01
  4.656899E-01
  4.648998E-01
  4.655792E-01
  4.651879E-01
  4.662256E-01
  4.660630E-01
  4.671520E-01
  4.668653E-01
  4.677004E-01
  4.671042E-01
  4.676573E-01
  4.668764E-01
  4.673807E-01
  4.666846E-01
  4.673654E-01
  4.668701E-01
  4.706511E-01
  4.694295E-01
  4.698588E-01
  4.681283E-01
  4.682076E-01
  4.663374E-01
  4.664868E-01
  4.648550E-01
  4.653499E-01
  4.641112E-01
  4.650028E-01
  4.641401E-01
  4.653771E-01
  4.648224E-01
  4.663157E-01
  4.659394E-01
  4.674991E-01
  4.670471E-01
  4.683791E-01
  4.675703E-01
  4.684751E-01
  4.672533E-01
  4.678490E-01
  4.664926E-01
  4.671589E-01
  4.660596E-01
  4.671055E-01
  4.664155E-01
  4.678006E-01
  4.672955E-01
  4.686625E-01
  4.679341E-01
  4.689196E-01
  4.677398E-01
  4.683149E-01
  4.668733E-01
  4.674093E-01
  4.661678E-01
  4.670918E-01
  4.663152E-01
  4.676391E-01
  4.670657E-01
  4.683162E-01
  4.673942E-01
  4.681095E-01
  4.666187E-01
  4.669049E-01
  4.652646E-01
  4.657420E-01
  4.645948E-01
  4.657399E-01
  4.652589E-01
  4.669004E-01
  4.666391E-01
  4.682091E-01
  4.676630E-01
  4.688718E-01
  4.680324E-01
  4.691149E-01
  4.683359E-01
  4.696035E-01
  4.690181E-01
  4.703628E-01
  4.696519E-01
  4.687719E-01
  4.676528E-01
  4.686194E-01
  4.673290E-01
  4.680953E-01
  4.666141E-01
  4.672303E-01
  4.656605E-01
  4.662647E-01
  4.647726E-01
  4.655543E-01
  4.643393E-01
  4.654779E-01
  4.646549E-01
  4.661555E-01
  4.655931E-01
  4.671947E-01
  4.665465E-01
  4.678881E-01
  4.668575E-01
  4.677728E-01
  4.663579E-01
  4.670046E-01
  4.654811E-01
  4.661869E-01
  4.648646E-01
  4.658666E-01
  4.648830E-01
  4.662196E-01
  4.655287E-01
  4.670825E-01
  4.664989E-01
  4.680172E-01
  4.672367E-01
  4.684117E-01
  4.672031E-01
  4.679676E-01
  4.664809E-01
  4.671838E-01
  4.658671E-01
  4.669038E-01
  4.659541E-01
  4.672470E-01
  4.663428E-01
  4.674539E-01
  4.662131E-01
  4.669638E-01
  4.654767E-01
  4.661900E-01
  4.648965E-01
  4.659845E-01
  4.651490E-01
  4.666680E-01
  4.661449E-01
  4.678038E-01
  4.672388E-01
  4.687046E-01
  4.678544E-01
  4.690156E-01
  4.679101E-01
  4.689121E-01
  4.677554E-01
  4.687897E-01
  4.676978E-01
  4.712116E-01
  4.696685E-01
  4.700243E-01
  4.680939E-01
  4.682344E-01
  4.662873E-01
  4.665887E-01
  4.649260E-01
  4.655707E-01
  4.642558E-01
  4.652206E-01
  4.641882E-01
  4.654019E-01
  4.645903E-01
  4.659937E-01
  4.653265E-01
  4.668076E-01
  4.661325E-01
  4.675145E-01
  4.666644E-01
  4.678315E-01
  4.667764E-01
  4.677992E-01
  4.666975E-01
  4.677835E-01
  4.668379E-01
  4.681297E-01
  4.673799E-01
  4.687950E-01
  4.680446E-01
  4.693084E-01
  4.682633E-01
  4.691349E-01
  4.676794E-01
  4.682208E-01
  4.666087E-01
  4.672275E-01
  4.659305E-01
  4.670390E-01
  4.662862E-01
  4.678455E-01
  4.673171E-01
  4.687985E-01
  4.678987E-01
  4.688107E-01
  4.673012E-01
  4.677375E-01
  4.660246E-01
  4.665910E-01
  4.653088E-01
  4.664921E-01
  4.658545E-01
  4.675572E-01
  4.672122E-01
  4.689555E-01
  4.684494E-01
  4.699305E-01
  4.691712E-01
  4.704871E-01
  4.696717E-01
  4.710011E-01
  4.701887E-01
  4.714250E-01
  4.703691E-01
  4.687324E-01
  4.677457E-01
  4.683138E-01
  4.673810E-01
  4.679636E-01
  4.670027E-01
  4.675172E-01
  4.664587E-01
  4.668695E-01
  4.657389E-01
  4.661523E-01
  4.651316E-01
  4.657675E-01
  4.650506E-01
  4.660091E-01
  4.655584E-01
  4.666635E-01
  4.662099E-01
  4.671741E-01
  4.664893E-01
  4.671999E-01
  4.663058E-01
  4.668973E-01
  4.659893E-01
  4.666564E-01
  4.658774E-01
  4.666873E-01
  4.660367E-01
  4.669506E-01
  4.663824E-01
  4.673593E-01
  4.668238E-01
  4.677761E-01
  4.671288E-01
  4.678731E-01
  4.669524E-01
  4.674309E-01
  4.663461E-01
  4.668376E-01
  4.659618E-01
  4.668033E-01
  4.663045E-01
  4.674198E-01
  4.669965E-01
  4.679657E-01
  4.672307E-01
  4.678329E-01
  4.667968E-01
  4.672549E-01