# vtk DataFile Version 2.0
title
ASCII
DATASET STRUCTURED_GRID
DIMENSIONS   64   64    1
POINTS   4096  float
  0.000000E+00  0.000000E+00  0.000000E+00
  0.000000E+00  3.906250E-01  0.000000E+00
  0.000000E+00  7.812500E-01  0.000000E+00
  0.000000E+00  1.171875E+00  0.000000E+00
  0.000000E+00  1.562500E+00  0.000000E+00
  0.000000E+00  1.953125E+00  0.000000E+00
  0.000000E+00  2.343750E+00  0.000000E+00
  0.000000E+00  2.734375E+00  0.000000E+00
  0.000000E+00  3.125000E+00  0.000000E+00
  0.000000E+00  3.515625E+00  0.000000E+00
  0.000000E+00  3.906250E+00  0.000000E+00
  0.000000E+00  4.296875E+00  0.000000E+00
  0.000000E+00  4.687500E+00  0.000000E+00
  0.000000E+00  5.078125E+00  0.000000E+00
  0.000000E+00  5.468750E+00  0.000000E+00
  0.000000E+00  5.859375E+00  0.000000E+00
  0.000000E+00  6.250000E+00  0.000000E+00
  0.000000E+00  6.640625E+00  0.000000E+00
  0.000000E+00  7.031250E+00  0.000000E+00
  0.000000E+00  7.421875E+00  0.000000E+00
  0.000000E+00  7.812500E+00  0.000000E+00
  0.000000E+00  8.203125E+00  0.000000E+00
  0.000000E+00  8.593750E+00  0.000000E+00
  0.000000E+00  8.984375E+00  0.000000E+00
  0.000000E+00  9.375000E+00  0.000000E+00
  0.000000E+00  9.765625E+00  0.000000E+00
  0.000000E+00  1.015625E+01  0.000000E+00
  0.000000E+00  1.054688E+01  0.000000E+00
  0.000000E+00  1.093750E+01  0.000000E+00
  0.000000E+00  1.132812E+01  0.000000E+00
  0.000000E+00  1.171875E+01  0.000000E+00
  0.000000E+00  1.210938E+01  0.000000E+00
  0.000000E+00  1.250000E+01  0.000000E+00
  0.000000E+00  1.289062E+01  0.000000E+00
  0.000000E+00  1.328125E+01  0.000000E+00
  0.000000E+00  1.367188E+01  0.000000E+00
  0.000000E+00  1.406250E+01  0.000000E+00
  0.000000E+00  1.445312E+01  0.000000E+00
  0.000000E+00  1.484375E+01  0.000000E+00
  0.000000E+00  1.523438E+01  0.000000E+00
  0.000000E+00  1.562500E+01  0.000000E+00
  0.000000E+00  1.601562E+01  0.000000E+00
  0.000000E+00  1.640625E+01  0.000000E+00
  0.000000E+00  1.679688E+01  0.000000E+00
  0.000000E+00  1.718750E+01  0.000000E+00
  0.000000E+00  1.757812E+01  0.000000E+00
  0.000000E+00  1.796875E+01  0.000000E+00
  0.000000E+00  1.835938E+01  0.000000E+00
  0.000000E+00  1.875000E+01  0.000000E+00
  0.000000E+00  1.914062E+01  0.000000E+00
  0.000000E+00  1.953125E+01  0.000000E+00
  0.000000E+00  1.992188E+01  0.000000E+00
  0.000000E+00  2.031250E+01  0.000000E+00
  0.000000E+00  2.070312E+01  0.000000E+00
  0.000000E+00  2.109375E+01  0.000000E+00
  0.000000E+00  2.148438E+01  0.000000E+00
  0.000000E+00  2.187500E+01  0.000000E+00
  0.000000E+00  2.226562E+01  0.000000E+00
  0.000000E+00  2.265625E+01  0.000000E+00
  0.000000E+00  2.304688E+01  0.000000E+00
  0.000000E+00  2.343750E+01  0.000000E+00
  0.000000E+00  2.382812E+01  0.000000E+00
  0.000000E+00  2.421875E+01  0.000000E+00
  0.000000E+00  2.460938E+01  0.000000E+00
  3.906250E-01  0.000000E+00  0.000000E+00
  3.906250E-01  3.906250E-01  0.000000E+00
  3.906250E-01  7.812500E-01  0.000000E+00
  3.906250E-01  1.171875E+00  0.000000E+00
  3.906250E-01  1.562500E+00  0.000000E+00
  3.906250E-01  1.953125E+00  0.000000E+00
  3.906250E-01  2.343750E+00  0.000000E+00
  3.906250E-01  2.734375E+00  0.000000E+00
  3.906250E-01  3.125000E+00  0.000000E+00
  3.906250E-01  3.515625E+00  0.000000E+00
  3.906250E-01  3.906250E+00  0.000000E+00
  3.906250E-01  4.296875E+00  0.000000E+00
  3.906250E-01  4.687500E+00  0.000000E+00
  3.906250E-01  5.078125E+00  0.000000E+00
  3.906250E-01  5.468750E+00  0.000000E+00
  3.906250E-01  5.859375E+00  0.000000E+00
  3.906250E-01  6.250000E+00  0.000000E+00
  3.906250E-01  6.640625E+00  0.000000E+00
  3.906250E-01  7.031250E+00  0.000000E+00
  3.906250E-01  7.421875E+00  0.000000E+00
  3.906250E-01  7.812500E+00  0.000000E+00
  3.906250E-01  8.203125E+00  0.000000E+00
  3.906250E-01  8.593750E+00  0.000000E+00
  3.906250E-01  8.984375E+00  0.000000E+00
  3.906250E-01  9.375000E+00  0.000000E+00
  3.906250E-01  9.765625E+00  0.000000E+00
  3.906250E-01  1.015625E+01  0.000000E+00
  3.906250E-01  1.054688E+01  0.000000E+00
  3.906250E-01  1.093750E+01  0.000000E+00
  3.906250E-01  1.132812E+01  0.000000E+00
  3.906250E-01  1.171875E+01  0.000000E+00
  3.906250E-01  1.210938E+01  0.000000E+00
  3.906250E-01  1.250000E+01  0.000000E+00
  3.906250E-01  1.289062E+01  0.000000E+00
  3.906250E-01  1.328125E+01  0.000000E+00
  3.906250E-01  1.367188E+01  0.000000E+00
  3.906250E-01  1.406250E+01  0.000000E+00
  3.906250E-01  1.445312E+01  0.000000E+00
  3.906250E-01  1.484375E+01  0.000000E+00
  3.906250E-01  1.523438E+01  0.000000E+00
  3.906250E-01  1.562500E+01  0.000000E+00
  3.906250E-01  1.601562E+01  0.000000E+00
  3.906250E-01  1.640625E+01  0.000000E+00
  3.906250E-01  1.679688E+01  0.000000E+00
  3.906250E-01  1.718750E+01  0.000000E+00
  3.906250E-01  1.757812E+01  0.000000E+00
  3.906250E-01  1.796875E+01  0.000000E+00
  3.906250E-01  1.835938E+01  0.000000E+00
  3.906250E-01  1.875000E+01  0.000000E+00
  3.906250E-01  1.914062E+01  0.000000E+00
  3.906250E-01  1.953125E+01  0.000000E+00
  3.906250E-01  1.992188E+01  0.000000E+00
  3.906250E-01  2.031250E+01  0.000000E+00
  3.906250E-01  2.070312E+01  0.000000E+00
  3.906250E-01  2.109375E+01  0.000000E+00
  3.906250E-01  2.148438E+01  0.000000E+00
  3.906250E-01  2.187500E+01  0.000000E+00
  3.906250E-01  2.226562E+01  0.000000E+00
  3.906250E-01  2.265625E+01  0.000000E+00
  3.906250E-01  2.304688E+01  0.000000E+00
  3.906250E-01  2.343750E+01  0.000000E+00
  3.906250E-01  2.382812E+01  0.000000E+00
  3.906250E-01  2.421875E+01  0.000000E+00
  3.906250E-01  2.460938E+01  0.000000E+00
  7.812500E-01  0.000000E+00  0.000000E+00
  7.812500E-01  3.906250E-01  0.000000E+00
  7.812500E-01  7.812500E-01  0.000000E+00
  7.812500E-01  1.171875E+00  0.000000E+00
  7.812500E-01  1.562500E+00  0.000000E+00
  7.812500E-01  1.953125E+00  0.000000E+00
  7.812500E-01  2.343750E+00  0.000000E+00
  7.812500E-01  2.734375E+00  0.000000E+00
  7.812500E-01  3.125000E+00  0.000000E+00
  7.812500E-01  3.515625E+00  0.000000E+00
  7.812500E-01  3.906250E+00  0.000000E+00
  7.812500E-01  4.296875E+00  0.000000E+00
  7.812500E-01  4.687500E+00  0.000000E+00
  7.812500E-01  5.078125E+00  0.000000E+00
  7.812500E-01  5.468750E+00  0.000000E+00
  7.812500E-01  5.859375E+00  0.000000E+00
  7.812500E-01  6.250000E+00  0.000000E+00
  7.812500E-01  6.640625E+00  0.000000E+00
  7.812500E-01  7.031250E+00  0.000000E+00
  7.812500E-01  7.421875E+00  0.000000E+00
  7.812500E-01  7.812500E+00  0.000000E+00
  7.812500E-01  8.203125E+00  0.000000E+00
  7.812500E-01  8.593750E+00  0.000000E+00
  7.812500E-01  8.984375E+00  0.000000E+00
  7.812500E-01  9.375000E+00  0.000000E+00
  7.812500E-01  9.765625E+00  0.000000E+00
  7.812500E-01  1.015625E+01  0.000000E+00
  7.812500E-01  1.054688E+01  0.000000E+00
  7.812500E-01  1.093750E+01  0.000000E+00
  7.812500E-01  1.132812E+01  0.000000E+00
  7.812500E-01  1.171875E+01  0.000000E+00
  7.812500E-01  1.210938E+01  0.000000E+00
  7.812500E-01  1.250000E+01  0.000000E+00
  7.812500E-01  1.289062E+01  0.000000E+00
  7.812500E-01  1.328125E+01  0.000000E+00
  7.812500E-01  1.367188E+01  0.000000E+00
  7.812500E-01  1.406250E+01  0.000000E+00
  7.812500E-01  1.445312E+01  0.000000E+00
  7.812500E-01  1.484375E+01  0.000000E+00
  7.812500E-01  1.523438E+01  0.000000E+00
  7.812500E-01  1.562500E+01  0.000000E+00
  7.812500E-01  1.601562E+01  0.000000E+00
  7.812500E-01  1.640625E+01  0.000000E+00
  7.812500E-01  1.679688E+01  0.000000E+00
  7.812500E-01  1.718750E+01  0.000000E+00
  7.812500E-01  1.757812E+01  0.000000E+00
  7.812500E-01  1.796875E+01  0.000000E+00
  7.812500E-01  1.835938E+01  0.000000E+00
  7.812500E-01  1.875000E+01  0.000000E+00
  7.812500E-01  1.914062E+01  0.000000E+00
  7.812500E-01  1.953125E+01  0.000000E+00
  7.812500E-01  1.992188E+01  0.000000E+00
  7.812500E-01  2.031250E+01  0.000000E+00
  7.812500E-01  2.070312E+01  0.000000E+00
  7.812500E-01  2.109375E+01  0.000000E+00
  7.812500E-01  2.148438E+01  0.000000E+00
  7.812500E-01  2.187500E+01  0.000000E+00
  7.812500E-01  2.226562E+01  0.000000E+00
  7.812500E-01  2.265625E+01  0.000000E+00
  7.812500E-01  2.304688E+01  0.000000E+00
  7.812500E-01  2.343750E+01  0.000000E+00
  7.812500E-01  2.382812E+01  0.000000E+00
  7.812500E-01  2.421875E+01  0.000000E+00
  7.812500E-01  2.460938E+01  0.000000E+00
  1.171875E+00  0.000000E+00  0.000000E+00
  1.171875E+00  3.906250E-01  0.000000E+00
  1.171875E+00  7.812500E-01  0.000000E+00
  1.171875E+00  1.171875E+00  0.000000E+00
  1.171875E+00  1.562500E+00  0.000000E+00
  1.171875E+00  1.953125E+00  0.000000E+00
  1.171875E+00  2.343750E+00  0.000000E+00
  1.171875E+00  2.734375E+00  0.000000E+00
  1.171875E+00  3.125000E+00  0.000000E+00
  1.171875E+00  3.515625E+00  0.000000E+00
  1.171875E+00  3.906250E+00  0.000000E+00
  1.171875E+00  4.296875E+00  0.000000E+00
  1.171875E+00  4.687500E+00  0.000000E+00
  1.171875E+00  5.078125E+00  0.000000E+00
  1.171875E+00  5.468750E+00  0.000000E+00
  1.171875E+00  5.859375E+00  0.000000E+00
  1.171875E+00  6.250000E+00  0.000000E+00
  1.171875E+00  6.640625E+00  0.000000E+00
  1.171875E+00  7.031250E+00  0.000000E+00
  1.171875E+00  7.421875E+00  0.000000E+00
  1.171875E+00  7.812500E+00  0.000000E+00
  1.171875E+00  8.203125E+00  0.000000E+00
  1.171875E+00  8.593750E+00  0.000000E+00
  1.171875E+00  8.984375E+00  0.000000E+00
  1.171875E+00  9.375000E+00  0.000000E+00
  1.171875E+00  9.765625E+00  0.000000E+00
  1.171875E+00  1.015625E+01  0.000000E+00
  1.171875E+00  1.054688E+01  0.000000E+00
  1.171875E+00  1.093750E+01  0.000000E+00
  1.171875E+00  1.132812E+01  0.000000E+00
  1.171875E+00  1.171875E+01  0.000000E+00
  1.171875E+00  1.210938E+01  0.000000E+00
  1.171875E+00  1.250000E+01  0.000000E+00
  1.171875E+00  1.289062E+01  0.000000E+00
  1.171875E+00  1.328125E+01  0.000000E+00
  1.171875E+00  1.367188E+01  0.000000E+00
  1.171875E+00  1.406250E+01  0.000000E+00
  1.171875E+00  1.445312E+01  0.000000E+00
[...]
POINT_DATA   4096
SCALARS CON  float  1
LOOKUP_TABLE default
  4.701254E-01
  4.686533E-01
  4.732928E-01
  4.725588E-01
  4.733048E-01
  4.673768E-01
  4.675546E-01
  4.667802E-01
  4.721430E-01
  4.709493E-01
  4.714300E-01
  4.667937E-01
  4.683637E-01
  4.666463E-01
  4.691618E-01
  4.666476E-01
  4.696688E-01
  4.695083E-01
  4.733909E-01
  4.704030E-01
  4.703042E-01
  4.657472E-01
  4.665595E-01
  4.634089E-01
  4.651989E-01
  4.624975E-01
  4.644058E-01
  4.629347E-01
  4.682975E-01
  4.698763E-01
  4.732245E-01
  4.678819E-01
  4.663632E-01
  4.639708E-01
  4.696528E-01
  4.699529E-01
  4.713655E-01
  4.663249E-01
  4.663175E-01
  4.629315E-01
  4.652679E-01
  4.636230E-01
  4.657861E-01
  4.626333E-01
  4.649547E-01
  4.636993E-01
  4.664968E-01
  4.651999E-01
  4.710866E-01
  4.727310E-01
  4.744165E-01
  4.673651E-01
  4.658612E-01
  4.634036E-01
  4.678926E-01
  4.693362E-01
  4.762742E-01
  4.769160E-01
  4.781136E-01
  4.724682E-01
  4.725861E-01
  4.700556E-01
  4.721406E-01
  4.687518E-01
  4.703516E-01
  4.696919E-01
  4.757658E-01
  4.774984E-01
  4.776110E-01
  4.695433E-01
  4.661565E-01
  4.643664E-01
  4.694701E-01
  4.693748E-01
  4.699273E-01
  4.669484E-01
  4.697719E-01
  4.692165E-01
  4.700055E-01
  4.659969E-01
  4.676661E-01
  4.688458E-01
  4.742642E-01
  4.734146E-01
  4.725927E-01
  4.664569E-01
  4.650760E-01
  4.628103E-01
  4.661093E-01
  4.656023E-01
  4.673826E-01
  4.653373E-01
  4.684610E-01
  4.692543E-01
  4.723416E-01
  4.688457E-01
  4.678872E-01
  4.652588E-01
  4.681911E-01
  4.670645E-01
  4.680762E-01
  4.651198E-01
  4.664874E-01
  4.648437E-01
  4.665340E-01
  4.634444E-01
  4.629973E-01
  4.596204E-01
  4.618446E-01
  4.616367E-01
  4.649683E-01
  4.657708E-01
  4.727825E-01
  4.758562E-01
  4.770010E-01
  4.693003E-01
  4.662409E-01
  4.647799E-01
  4.706477E-01
  4.735181E-01
  4.787150E-01
  4.774961E-01
  4.764723E-01
  4.704548E-01
  4.700139E-01
  4.689003E-01
  4.720024E-01
  4.697607E-01
  4.645702E-01
  4.685212E-01
  4.759039E-01
  4.784580E-01
  4.767329E-01
  4.697356E-01
  4.666923E-01
  4.661545E-01
  4.692481E-01
  4.694112E-01
  4.700850E-01
  4.690572E-01
  4.705442E-01
  4.700716E-01
  4.704065E-01
  4.684667E-01
  4.694666E-01
  4.702736E-01
  4.730115E-01
  4.722844E-01
  4.715146E-01
  4.680031E-01
  4.665029E-01
  4.643971E-01
  4.655554E-01
  4.651686E-01
  4.656563E-01
  4.640021E-01
  4.653117E-01
  4.656549E-01
  4.667376E-01
  4.643064E-01
  4.640386E-01
  4.645241E-01
  4.686619E-01
  4.697734E-01
  4.699026E-01
  4.667860E-01
  4.660264E-01
  4.644643E-01
  4.650683E-01
  4.631784E-01
  4.618003E-01
  4.583384E-01
  4.587352E-01
  4.601930E-01
  4.649713E-01
  4.685047E-01
  4.743946E-01
  4.768289E-01
  4.760812E-01
  4.695387E-01
  4.662638E-01
  4.657143E-01
  4.698422E-01
  4.727703E-01
  4.772755E-01
  4.780016E-01
  4.763465E-01
  4.694893E-01
  4.649896E-01
  4.617410E-01
  4.623847E-01
  4.618250E-01
  4.643091E-01
  4.694947E-01
  4.753492E-01
  4.788622E-01
  4.746481E-01
  4.679925E-01
  4.627705E-01
  4.635286E-01
  4.656810E-01
  4.683564E-01
  4.689528E-01
  4.708749E-01
  4.720192E-01
  4.728687E-01
  4.704377E-01
  4.687056E-01
  4.679542E-01
  4.704580E-01
  4.719172E-01
  4.727135E-01
  4.708125E-01
  4.696766E-01
  4.682560E-01
  4.690202E-01
  4.691605E-01
  4.696680E-01
  4.677273E-01
  4.660753E-01
  4.639627E-01
  4.647042E-01
  4.658685E-01
  4.680514E-01
  4.679420E-01
  4.680361E-01
  4.669327E-01
  4.668911E-01
  4.655926E-01
  4.657133E-01
  4.660811E-01
  4.686005E-01
  4.686740E-01
  4.667010E-01
  4.625541E-01
  4.619256E-01
  4.631363E-01
  4.659943E-01
  4.667599E-01
  4.684656E-01
  4.703271E-01
  4.732762E-01
  4.719240E-01
  4.683177E-01
  4.648506E-01
  4.672174E-01
  4.715383E-01
  4.762680E-01
  4.776087E-01
  4.774163E-01
  4.731876E-01
  4.682828E-01
  4.635859E-01
  4.629162E-01
  4.626614E-01
  4.634353E-01
  4.614677E-01
  4.698769E-01
  4.729960E-01
  4.762031E-01
  4.695406E-01
  4.662917E-01
  4.613395E-01
  4.641848E-01
  4.634780E-01
  4.678057E-01
  4.679062E-01
  4.722314E-01
  4.704146E-01
  4.719016E-01
  4.683551E-01
  4.700710E-01
  4.682135E-01
  4.716013E-01
  4.696904E-01
  4.714727E-01
  4.687251E-01
  4.713476E-01
  4.689076E-01
  4.698238E-01
  4.656778E-01
  4.670041E-01
  4.641960E-01
  4.655452E-01
  4.617763E-01
  4.636481E-01
  4.628567E-01
  4.674759E-01
  4.660191E-01
  4.679191E-01
  4.657965E-01
  4.691148E-01
  4.666668E-01
  4.675152E-01
  4.644971E-01
  4.678123E-01
  4.659562E-01
  4.664883E-01
  4.619210E-01
  4.646675E-01
  4.655596E-01
  4.709868E-01
  4.689974E-01
  4.694000E-01
  4.657388E-01
  4.685901E-01
  4.665123E-01
  4.672601E-01
  4.635427E-01
  4.669132E-01
  4.671077E-01
  4.717184E-01
  4.713223E-01
  4.748158E-01
  4.712057E-01
  4.696731E-01
  4.630289E-01
  4.621593E-01
  4.579284E-01
  4.603977E-01
  4.659322E-01
  4.717158E-01
  4.714825E-01
  4.743656E-01
  4.677003E-01
  4.654345E-01
  4.590144E-01
  4.612164E-01
  4.596174E-01
  4.650831E-01
  4.651583E-01
  4.706794E-01
  4.690179E-01
  4.713087E-01
  4.664149E-01
  4.679117E-01
  4.656922E-01
  4.711359E-01
  4.705172E-01
  4.739562E-01
  4.701059E-01
  4.718672E-01
  4.675188E-01
  4.681694E-01
  4.629793E-01
  4.654743E-01
  4.639114E-01
  4.676159E-01
  4.635749E-01
  4.659720E-01
  4.659907E-01
  4.733197E-01
  4.711511E-01
  4.702696E-01
  4.634316E-01
  4.657194E-01
  4.639876E-01
  4.676982E-01
  4.658423E-01
  4.707390E-01
  4.678928E-01
  4.672948E-01
  4.614163E-01
  4.669690E-01
  4.705001E-01
  4.773579E-01
  4.723852E-01
  4.696701E-01
  4.626964E-01
  4.657495E-01
  4.644921E-01
  4.671760E-01
  4.629839E-01
  4.664875E-01
  4.657157E-01
  4.700594E-01
  4.672057E-01
  4.697623E-01
  4.665212E-01
  4.693680E-01
  4.665419E-01
  4.691239E-01
  4.652085E-01
  4.676315E-01
  4.656329E-01
  4.696794E-01
  4.688462E-01
  4.702162E-01
  4.661255E-01
  4.661024E-01
  4.630052E-01
  4.641824E-01
  4.616123E-01
  4.646706E-01
  4.653881E-01
  4.694792E-01
  4.672500E-01
  4.677240E-01
  4.649681E-01
  4.678358E-01
  4.679577E-01
  4.725390E-01
  4.723144E-01
  4.743178E-01
  4.711449E-01
  4.717706E-01
  4.673046E-01
  4.646651E-01
  4.579302E-01
  4.588750E-01
  4.600127E-01
  4.656766E-01
  4.646834E-01
  4.664735E-01
  4.664817E-01
  4.719545E-01
  4.703960E-01
  4.691127E-01
  4.649312E-01
  4.686690E-01
  4.692204E-01
  4.713112E-01
  4.680645E-01
  4.694473E-01
  4.663848E-01
  4.656841E-01
  4.617504E-01
  4.659762E-01
  4.697550E-01
  4.765758E-01
  4.744686E-01
  4.718357E-01
  4.651047E-01
  4.658942E-01
  4.650108E-01
  4.672426E-01
  4.641812E-01
  4.653563E-01
  4.629455E-01
  4.645147E-01
  4.626623E-01
  4.659238E-01
  4.658888E-01
  4.698954E-01
  4.688774E-01
  4.697787E-01
  4.654796E-01
  4.664492E-01
  4.674592E-01
  4.673405E-01
  4.670403E-01
  4.691807E-01
  4.685876E-01
  4.686022E-01
  4.664818E-01
  4.661220E-01
  4.644473E-01
  4.658203E-01
  4.666594E-01
  4.691270E-01
  4.683629E-01
  4.680320E-01
  4.661559E-01
  4.677435E-01
  4.695074E-01
  4.740572E-01
  4.760062E-01
  4.769267E-01
  4.733774E-01
  4.710991E-01
  4.676359E-01
  4.654790E-01
  4.613012E-01
  4.612965E-01
  4.631971E-01
  4.677047E-01
  4.679802E-01
  4.688140E-01
  4.704421E-01
  4.756795E-01
  4.757024E-01
  4.723044E-01
  4.669743E-01
  4.678650E-01
  4.697258E-01
  4.720161E-01
  4.709225E-01
  4.717421E-01
  4.700509E-01
  4.679090E-01
  4.642963E-01
  4.664968E-01
  4.702579E-01
  4.747559E-01
  4.735235E-01
  4.709367E-01
  4.668809E-01
  4.673299E-01
  4.674149E-01
  4.679140E-01
  4.655472E-01
  4.661719E-01
  4.665080E-01
  4.680699E-01
  4.661446E-01
  4.653562E-01
  4.643697E-01
  4.676138E-01
  4.698505E-01
  4.722387E-01
  4.708329E-01
  4.701358E-01
  4.622086E-01
  4.635449E-01
  4.649165E-01
  4.683867E-01
  4.692950E-01
  4.712342E-01
  4.713713E-01
  4.719806E-01
  4.696985E-01
  4.697397E-01
  4.697701E-01
  4.711394E-01
  4.689525E-01
  4.679672E-01
  4.674187E-01
  4.706005E-01
  4.724951E-01
  4.753825E-01
  4.755288E-01
  4.752597E-01
  4.716182E-01
  4.699226E-01
  4.676563E-01
  4.665852E-01
  4.632001E-01
  4.630403E-01
  4.642084E-01
  4.680012E-01
  4.682999E-01
  4.685488E-01
  4.683566E-01
  4.716707E-01
  4.722444E-01
  4.718842E-01
  4.702687E-01
  4.728934E-01
  4.740162E-01
  4.737491E-01
  4.697584E-01
  4.682565E-01
  4.667759E-01
  4.673304E-01
  4.659642E-01
  4.664951E-01
  4.663337E-01
  4.684759E-01
  4.685045E-01
  4.690022E-01
  4.677034E-01
  4.690969E-01
  4.691468E-01
  4.694538E-01
  4.670593E-01
  4.671000E-01
  4.671196E-01
  4.693095E-01
  4.688087E-01
  4.683924E-01
  4.660587E-01
  4.664612E-01
  4.658667E-01
  4.661915E-01
  4.641322E-01
  4.637281E-01
  4.628020E-01
  4.630424E-01
  4.648996E-01
  4.695630E-01
  4.705983E-01
  4.712860E-01
  4.701046E-01
  4.709137E-01
  4.699549E-01
  4.707485E-01
  4.703473E-01
  4.716018E-01
  4.703446E-01
  4.699832E-01
  4.682081E-01
  4.689798E-01
  4.689668E-01
  4.716335E-01
  4.730095E-01
  4.741133E-01
  4.704725E-01
  4.678687E-01
  4.658748E-01
  4.674621E-01
  4.675034E-01
  4.692143E-01
  4.698687E-01
  4.718077E-01
  4.702263E-01
  4.693561E-01
  4.685932E-01
  4.717304E-01
  4.725015E-01
  4.721930E-01
  4.694545E-01
  4.703395E-01
  4.706833E-01
  4.711280E-01
  4.682708E-01
  4.675376E-01
  4.663252E-01
  4.672580E-01
  4.668905E-01
  4.684147E-01
  4.674002E-01
  4.666733E-01
  4.641278E-01
  4.647624E-01
  4.659339E-01
  4.699924E-01
  4.711477E-01
  4.710205E-01
  4.678346E-01
  4.683890E-01
  4.705598E-01
  4.749016E-01
  4.742745E-01
  4.713795E-01
  4.660940E-01
  4.649785E-01
  4.647583E-01
  4.668315E-01
  4.663386E-01
  4.658763E-01
  4.607887E-01
  4.621790E-01
  4.644024E-01
  4.676485E-01
  4.684594E-01
  4.696118E-01
  4.702181E-01
  4.713895E-01
  4.704062E-01
  4.704129E-01
  4.704096E-01
  4.711940E-01
  4.695267E-01
  4.682413E-01
  4.669492E-01
  4.675279E-01
  4.672793E-01
  4.686621E-01
  4.699479E-01
  4.713025E-01
  4.693036E-01
  4.672295E-01
  4.651300E-01
  4.652468E-01
  4.653536E-01
  4.677075E-01
  4.698615E-01
  4.719540E-01
  4.705416E-01
  4.681472E-01
  4.651323E-01
  4.651299E-01
  4.655269E-01
  4.670889E-01
  4.681757E-01
  4.709614E-01
  4.717081E-01
  4.706110E-01
  4.663640E-01
  4.631723E-01
  4.611839E-01
  4.632826E-01
  4.660776E-01
  4.684772E-01
  4.670656E-01
  4.652849E-01
  4.634974E-01
  4.648986E-01
  4.673153E-01
  4.710279E-01
  4.717992E-01
  4.708248E-01
  4.678225E-01
  4.673003E-01
  4.684633E-01
  4.720515E-01
  4.733604E-01
  4.726491E-01
  4.691736E-01
  4.673976E-01
  4.659815E-01
  4.655824E-01
  4.634803E-01
  4.622010E-01
  4.643291E-01
  4.639937E-01
  4.648947E-01
  4.675812E-01
  4.684467E-01
  4.689859E-01
  4.681918E-01
  4.681690E-01
  4.672576E-01
  4.677437E-01
  4.681069E-01
  4.695607E-01
  4.692332E-01
  4.683786E-01
  4.660162E-01
  4.653544E-01
  4.655472E-01
  4.686138E-01
  4.717251E-01
  4.740184E-01
  4.718762E-01
  4.685430E-01
  4.651710E-01
  4.648102E-01
  4.655079E-01
  4.688265E-01
  4.719565E-01
  4.743537E-01
  4.726840E-01
  4.699485E-01
  4.671370E-01
  4.672769E-01
  4.672064E-01
  4.670582E-01
  4.656147E-01
  4.663045E-01
  4.671812E-01
  4.682434E-01
  4.668048E-01
  4.652211E-01
  4.629090E-01
  4.632717E-01
  4.653223E-01
  4.690646E-01
  4.698462E-01
  4.688842E-01
  4.665737E-01
  4.671017E-01
  4.689738E-01
  4.717886E-01
  4.711958E-01
  4.688824E-01
  4.656447E-01
  4.658504E-01
  4.679804E-01
  4.717240E-01
  4.726381E-01
  4.717545E-01
  4.693020E-01
  4.694468E-01
  4.701873E-01
  4.711169E-01
  4.692678E-01
  4.671353E-01
  4.626033E-01
  4.649887E-01
  4.649829E-01
  4.672112E-01
  4.674241E-01
  4.699445E-01
  4.693632E-01
  4.692966E-01
  4.661630E-01
  4.667156E-01
  4.669440E-01
  4.692613E-01
  4.673434E-01
  4.665522E-01
  4.646620E-01
  4.670772E-01
  4.683306E-01
  4.718527E-01
  4.725834E-01
  4.743094E-01
  4.719711E-01
  4.704764E-01
  4.661461E-01
  4.643169E-01
  4.618733E-01
  4.645694E-01
  4.671124E-01
  4.713586E-01
  4.706627E-01
  4.696707E-01
  4.659852E-01
  4.660367E-01
  4.651718E-01
  4.667697E-01
  4.663198E-01
  4.686794E-01
  4.684392E-01
  4.690327E-01
  4.660684E-01
  4.648375E-01
  4.620513E-01
  4.635626E-01
  4.644751E-01
  4.672568E-01
  4.666749E-01
  4.683249E-01
  4.682609E-01
  4.706044E-01
  4.703532E-01
  4.711234E-01
  4.678145E-01
  4.661203E-01
  4.633360E-01
  4.642407E-01
  4.637534E-01
  4.664385E-01
  4.676837E-01
  4.709318E-01
  4.709133E-01
  4.723089E-01
  4.703503E-01
  4.688302E-01
  4.642049E-01
  4.633804E-01
  4.659889E-01
  4.675607E-01
  4.665335E-01
  4.688604E-01
  4.687955E-01
  4.703202E-01
  4.675998E-01
  4.666475E-01
  4.637593E-01
  4.651285E-01
  4.650924E-01
  4.677371E-01
  4.666685E-01
  4.669041E-01
  4.645505E-01
  4.665000E-01
  4.673632E-01
  4.710723E-01
  4.716456E-01
  4.739506E-01
  4.720333E-01
  4.710958E-01
  4.669879E-01
  4.661065E-01
  4.636944E-01
  4.652749E-01
  4.655830E-01
  4.689455E-01
  4.686962E-01
  4.698162E-01
  4.684189E-01
  4.707169E-01
  4.701379E-01
  4.701194E-01
  4.661717E-01
  4.659702E-01
  4.648777E-01
  4.669193E-01
  4.663172E-01
  4.684515E-01
  4.674467E-01
  4.681146E-01
  4.659332E-01
  4.669993E-01
  4.662343E-01
  4.685368E-01
  4.678956E-01
  4.691591E-01
  4.673570E-01
  4.676458E-01
  4.644497E-01
  4.640243E-01
  4.627043E-01
  4.656833E-01
  4.662668E-01
  4.688082E-01
  4.681307E-01
  4.698744E-01
  4.691119E-01
  4.709502E-01
  4.693197E-01
  4.690748E-01
  4.660636E-01
  4.668898E-01
  4.659359E-01
  4.676880E-01
  4.668441E-01
  4.670563E-01
  4.674521E-01
  4.692094E-01
  4.691651E-01
  4.685437E-01
  4.662471E-01
  4.656520E-01
  4.653829E-01
  4.661877E-01
  4.651242E-01
  4.648183E-01
  4.651486E-01
  4.679611E-01
  4.692030E-01
  4.694358E-01
  4.682691E-01
  4.695013E-01
  4.707314E-01
  4.715869E-01
  4.692033E-01
  4.665564E-01
  4.632555E-01
  4.617973E-01
  4.608627E-01
  4.628855E-01
  4.649508E-01
  4.666588E-01
  4.658718E-01
  4.663679E-01
  4.668124E-01
  4.678086E-01
  4.674053E-01
  4.682571E-01
  4.678193E-01
  4.671286E-01
  4.655105E-01
  4.663473E-01
  4.673855E-01
  4.688525E-01
  4.676068E-01
  4.659365E-01
  4.642676E-01
  4.657996E-01
  4.668556E-01
  4.671154E-01
  4.650614E-01
  4.638572E-01
  4.623174E-01
  4.631881E-01
  4.649864E-01
  4.679421E-01
  4.682300E-01
  4.680163E-01
  4.671778E-01
  4.682312E-01
  4.683185E-01
  4.680136E-01
  4.651632E-01
  4.628628E-01
  4.613990E-01
  4.636214E-01
  4.725511E-01
  4.698763E-01
  4.680946E-01
  4.663047E-01
  4.676150E-01
  4.673706E-01
  4.680910E-01
  4.670080E-01
  4.673719E-01
  4.656131E-01
  4.652995E-01
  4.642035E-01
  4.654743E-01
  4.653740E-01
  4.674137E-01
  4.685251E-01
  4.703350E-01
  4.687238E-01
  4.687981E-01
  4.694666E-01
  4.725368E-01
  4.718490E-01
  4.703176E-01
  4.670229E-01
  4.660730E-01
  4.633710E-01
  4.625343E-01
  4.622712E-01
  4.653283E-01
  4.658178E-01
  4.664298E-01
  4.661735E-01
  4.685421E-01
  4.681649E-01
  4.677467E-01
  4.659626E-01
  4.665008E-01
  4.652765E-01
  4.661380E-01
  4.670903E-01
  4.699178E-01
  4.691797E-01
  4.684063E-01
  4.666076E-01
  4.679063E-01
  4.678114E-01
  4.675744E-01
  4.641252E-01
  4.628703E-01
  4.618964E-01
  4.635331E-01
  4.641362E-01
  4.676183E-01
  4.704132E-01
  4.734153E-01
  4.716879E-01
  4.691664E-01
  4.650066E-01
  4.638195E-01
  4.621680E-01
  4.629150E-01
  4.636528E-01
  4.678936E-01
  4.706747E-01
  4.745002E-01
  4.715571E-01
  4.688913E-01
  4.652054E-01
  4.659992E-01
  4.660326E-01
  4.684468E-01
  4.681804E-01
  4.690966E-01
  4.669476E-01
  4.668088E-01
  4.646167E-01
  4.646020E-01
  4.635706E-01
  4.674941E-01
  4.708492E-01
  4.741396E-01
  4.713091E-01
  4.696133E-01
  4.684109E-01
  4.716037E-01
  4.711140E-01
  4.695116E-01
  4.646305E-01
  4.631487E-01
  4.605247E-01
  4.609708E-01
  4.614266E-01
  4.652622E-01
  4.645240E-01
  4.631649E-01
  4.609865E-01
  4.646064E-01
  4.673737E-01
  4.710738E-01
  4.708223E-01
  4.707300E-01
  4.667848E-01
  4.653564E-01
  4.637803E-01
  4.657305E-01
  4.653645E-01
  4.666885E-01
  4.661078E-01
  4.684856E-01
  4.683849E-01
  4.681990E-01
  4.639426E-01
  4.629467E-01
  4.624735E-01
  4.654518E-01
  4.662030E-01
  4.693600E-01
  4.702676E-01
  4.715079E-01
  4.680168E-01
  4.658628E-01
  4.626955E-01
  4.627641E-01
  4.606252E-01
  4.610981E-01
  4.617349E-01
  4.673679E-01
  4.712838E-01
  4.785347E-01
  4.742230E-01
  4.702974E-01
  4.672848E-01
  4.669256E-01
  4.654448E-01
  4.647585E-01
  4.642132E-01
  4.659775E-01
  4.663433E-01
  4.665028E-01
  4.649870E-01
  4.644164E-01
  4.634094E-01
  4.653193E-01
  4.680488E-01
  4.711755E-01
  4.706386E-01
  4.696846E-01
  4.686591E-01
  4.696811E-01
  4.686851E-01
  4.670815E-01
  4.645626E-01
  4.643862E-01
  4.636806E-01
  4.642912E-01
  4.652400E-01
  4.676732E-01
  4.669011E-01
  4.655428E-01
  4.653337E-01
  4.693360E-01
  4.719972E-01
  4.725427E-01
  4.697961E-01
  4.678234E-01
  4.655496E-01
  4.656522E-01
  4.659452E-01
  4.668174E-01
  4.653953E-01
  4.658076E-01
  4.679148E-01
  4.719017E-01
  4.717734E-01
  4.683345E-01
  4.627267E-01
  4.613937E-01
  4.631136E-01
  4.668092E-01
  4.677974E-01
  4.689294E-01
  4.696405E-01
  4.708607E-01
  4.685773E-01
  4.656556E-01
  4.626916E-01
  4.626187E-01
  4.623684E-01
  4.641147E-01
  4.673294E-01
  4.737369E-01
  4.778464E-01
  4.739523E-01
  4.722382E-01
  4.695686E-01
  4.669294E-01
  4.662146E-01
  4.653868E-01
  4.650168E-01
  4.643869E-01
  4.650711E-01
  4.655884E-01
  4.663594E-01
  4.652504E-01
  4.633070E-01
  4.612704E-01
  4.625241E-01
  4.653271E-01
  4.679872E-01
  4.675171E-01
  4.658920E-01
  4.641910E-01
  4.650410E-01
  4.663721E-01
  4.672454E-01
  4.659520E-01
  4.648334E-01
  4.635871E-01
  4.639762E-01
  4.654930E-01
  4.679954E-01
  4.675417E-01
  4.656910E-01
  4.651389E-01
  4.686338E-01
  4.720624E-01
  4.733914E-01
  4.712668E-01
  4.686150E-01
  4.659564E-01
  4.651623E-01
  4.646219E-01
  4.647593E-01
  4.645328E-01
  4.659642E-01
  4.680378E-01
  4.704832E-01
  4.699660E-01
  4.670336E-01
  4.627244E-01
  4.613685E-01
  4.625902E-01
  4.654624E-01
  4.667529E-01
  4.676979E-01
  4.677127E-01
  4.672970E-01
  4.651456E-01
  4.644998E-01
  4.657712E-01
  4.684531E-01
  4.687147E-01
  4.678539E-01
  4.672367E-01
  4.695384E-01
  4.722628E-01
  4.726269E-01
  4.696044E-01
  4.693510E-01
  4.670108E-01
  4.678717E-01
  4.652241E-01
  4.647876E-01
  4.619606E-01
  4.631308E-01
  4.621414E-01
  4.642132E-01
  4.634716E-01
  4.652981E-01
  4.636970E-01
  4.646500E-01
  4.628268E-01
  4.640888E-01
  4.626210E-01
  4.637929E-01
  4.619439E-01
  4.639278E-01
  4.648508E-01
  4.693095E-01
  4.696380E-01
  4.708446E-01
  4.680817E-01
  4.687873E-01
  4.682228E-01
  4.708568E-01
  4.691836E-01
  4.698118E-01
  4.694220E-01
  4.733418E-01
  4.724750E-01
  4.708088E-01
  4.650148E-01
  4.642227E-01
  4.633650E-01
  4.665643E-01
  4.665938E-01
  4.683313E-01
  4.662492E-01
  4.677897E-01
  4.682674E-01
  4.713528E-01
  4.685794E-01
  4.661207E-01
  4.612112E-01
  4.615798E-01
  4.612456E-01
  4.643712E-01
  4.640885E-01
  4.665608E-01
  4.668581E-01
  4.698386E-01
  4.686117E-01
  4.698993E-01
  4.697100E-01
  4.732822E-01
  4.728952E-01
  4.736224E-01
  4.711386E-01
  4.725306E-01
  4.715997E-01
  4.671547E-01
  4.657772E-01
  4.685897E-01
  4.654856E-01
  4.676009E-01
  4.653234E-01
  4.682644E-01
  4.647526E-01
  4.649870E-01
  4.607095E-01
  4.637535E-01
  4.630204E-01
  4.671917E-01
  4.658871E-01
  4.694580E-01
  4.666129E-01
  4.671678E-01
  4.621094E-01
  4.628177E-01
  4.595724E-01
  4.636972E-01
  4.651069E-01
  4.714609E-01
  4.696961E-01
  4.704286E-01
  4.660166E-01
  4.686582E-01
  4.679138E-01
  4.717860E-01
  4.680591E-01
  4.682943E-01
  4.653514E-01
  4.697417E-01
  4.682993E-01
  4.696108E-01
  4.650124E-01
  4.667655E-01
  4.643447E-01
  4.666178E-01
  4.633943E-01
  4.662039E-01
  4.651042E-01
  4.692757E-01
  4.673850E-01
  4.693039E-01
  4.651720E-01
  4.663076E-01
  4.631360E-01
  4.654199E-01