# vtk DataFile Version 2.0
title
ASCII
DATASET STRUCTURED_GRID
DIMENSIONS   64   64    1
POINTS   4096  float
  0.000000E+00  0.000000E+00  0.000000E+00
  0.000000E+00  3.906250E-01  0.000000E+00
  0.000000E+00  7.812500E-01  0.000000E+00
  0.000000E+00  1.171875E+00  0.000000E+00
  0.000000E+00  1.562500E+00  0.000000E+00
  0.000000E+00  1.953125E+00  0.000000E+00
  0.000000E+00  2.343750E+00  0.000000E+00
  0.000000E+00  2.734375E+00  0.000000E+00
  0.000000E+00  3.125000E+00  0.000000E+00
  0.000000E+00  3.515625E+00  0.000000E+00
  0.000000E+00  3.906250E+00  0.000000E+00
  0.000000E+00  4.296875E+00  0.000000E+00
  0.000000E+00  4.687500E+00  0.000000E+00
  0.000000E+00  5.078125E+00  0.000000E+00
  0.000000E+00  5.468750E+00  0.000000E+00
  0.000000E+00  5.859375E+00  0.000000E+00
  0.000000E+00  6.250000E+00  0.000000E+00
  0.000000E+00  6.640625E+00  0.000000E+00
  0.000000E+00  7.031250E+00  0.000000E+00
  0.000000E+00  7.421875E+00  0.000000E+00
  0.000000E+00  7.812500E+00  0.000000E+00
  0.000000E+00  8.203125E+00  0.000000E+00
  0.000000E+00  8.593750E+00  0.000000E+00
  0.000000E+00  8.984375E+00  0.000000E+00
  0.000000E+00  9.375000E+00  0.000000E+00
  0.000000E+00  9.765625E+00  0.000000E+00
  0.000000E+00  1.015625E+01  0.000000E+00
  0.000000E+00  1.054688E+01  0.000000E+00
  0.000000E+00  1.093750E+01  0.000000E+00
  0.000000E+00  1.132812E+01  0.000000E+00
  0.000000E+00  1.171875E+01  0.000000E+00
  0.000000E+00  1.210938E+01  0.000000E+00
  0.000000E+00  1.250000E+01  0.000000E+00
  0.000000E+00  1.289062E+01  0.000000E+00
  0.000000E+00  1.328125E+01  0.000000E+00
  0.000000E+00  1.367188E+01  0.000000E+00
  0.000000E+00  1.406250E+01  0.000000E+00
  0.000000E+00  1.445312E+01  0.000000E+00
  0.000000E+00  1.484375E+01  0.000000E+00
  0.000000E+00  1.523438E+01  0.000000E+00
  0.000000E+00  1.562500E+01  0.000000E+00
  0.000000E+00  1.601562E+01  0.000000E+00
  0.000000E+00  1.640625E+01  0.000000E+00
  0.000000E+00  1.679688E+01  0.000000E+00
  0.000000E+00  1.718750E+01  0.000000E+00
  0.000000E+00  1.757812E+01  0.000000E+00
  0.000000E+00  1.796875E+01  0.000000E+00
  0.000000E+00  1.835938E+01  0.000000E+00
  0.000000E+00  1.875000E+01  0.000000E+00
  0.000000E+00  1.914062E+01  0.000000E+00
  0.000000E+00  1.953125E+01  0.000000E+00
  0.000000E+00  1.992188E+01  0.000000E+00
  0.000000E+00  2.031250E+01  0.000000E+00
  0.000000E+00  2.070312E+01  0.000000E+00
  0.000000E+00  2.109375E+01  0.000000E+00
  0.000000E+00  2.148438E+01  0.000000E+00
  0.000000E+00  2.187500E+01  0.000000E+00
  0.000000E+00  2.226562E+01  0.000000E+00
  0.000000E+00  2.265625E+01  0.000000E+00
  0.000000E+00  2.304688E+01  0.000000E+00
  0.000000E+00  2.343750E+01  0.000000E+00
  0.000000E+00  2.382812E+01  0.000000E+00
  0.000000E+00  2.421875E+01  0.000000E+00
  0.000000E+00  2.460938E+01  0.000000E+00
  3.906250E-01  0.000000E+00  0.000000E+00
  3.906250E-01  3.906250E-01  0.000000E+00
  3.906250E-01  7.812500E-01  0.000000E+00
  3.906250E-01  1.171875E+00  0.000000E+00
  3.906250E-01  1.562500E+00  0.000000E+00
  3.906250E-01  1.953125E+00  0.000000E+00
  3.906250E-01  2.343750E+00  0.000000E+00
  3.906250E-01  2.734375E+00  0.000000E+00
  3.906250E-01  3.125000E+00  0.000000E+00
  3.906250E-01  3.515625E+00  0.000000E+00
  3.906250E-01  3.906250E+00  0.000000E+00
  3.906250E-01  4.296875E+00  0.000000E+00
  3.906250E-01  4.687500E+00  0.000000E+00
  3.906250E-01  5.078125E+00  0.000000E+00
  3.906250E-01  5.468750E+00  0.000000E+00
  3.906250E-01  5.859375E+00  0.000000E+00
  3.906250E-01  6.250000E+00  0.000000E+00
  3.906250E-01  6.640625E+00  0.000000E+00
  3.906250E-01  7.031250E+00  0.000000E+00
  3.906250E-01  7.421875E+00  0.000000E+00
  3.906250E-01  7.812500E+00  0.000000E+00
  3.906250E-01  8.203125E+00  0.000000E+00
  3.906250E-01  8.593750E+00  0.000000E+00
  3.906250E-01  8.984375E+00  0.000000E+00
  3.906250E-01  9.375000E+00  0.000000E+00
  3.906250E-01  9.765625E+00  0.000000E+00
  3.906250E-01  1.015625E+01  0.000000E+00
  3.906250E-01  1.054688E+01  0.000000E+00
  3.906250E-01  1.093750E+01  0.000000E+00
  3.906250E-01  1.132812E+01  0.000000E+00
  3.906250E-01  1.171875E+01  0.000000E+00
  3.906250E-01  1.210938E+01  0.000000E+00
  3.906250E-01  1.250000E+01  0.000000E+00
  3.906250E-01  1.289062E+01  0.000000E+00
  3.906250E-01  1.328125E+01  0.000000E+00
  3.906250E-01  1.367188E+01  0.000000E+00
  3.906250E-01  1.406250E+01  0.000000E+00
  3.906250E-01  1.445312E+01  0.000000E+00
  3.906250E-01  1.484375E+01  0.000000E+00
  3.906250E-01  1.523438E+01  0.000000E+00
  3.906250E-01  1.562500E+01  0.000000E+00
  3.906250E-01  1.601562E+01  0.000000E+00
  3.906250E-01  1.640625E+01  0.000000E+00
  3.906250E-01  1.679688E+01  0.000000E+00
  3.906250E-01  1.718750E+01  0.000000E+00
  3.906250E-01  1.757812E+01  0.000000E+00
  3.906250E-01  1.796875E+01  0.000000E+00
  3.906250E-01  1.835938E+01  0.000000E+00
  3.906250E-01  1.875000E+01  0.000000E+00
  3.906250E-01  1.914062E+01  0.000000E+00
  3.906250E-01  1.953125E+01  0.000000E+00
  3.906250E-01  1.992188E+01  0.000000E+00
  3.906250E-01  2.031250E+01  0.000000E+00
  3.906250E-01  2.070312E+01  0.000000E+00
  3.906250E-01  2.109375E+01  0.000000E+00
  3.906250E-01  2.148438E+01  0.000000E+00
  3.906250E-01  2.187500E+01  0.000000E+00
  3.906250E-01  2.226562E+01  0.000000E+00
  3.906250E-01  2.265625E+01  0.000000E+00
  3.906250E-01  2.304688E+01  0.000000E+00
  3.906250E-01  2.343750E+01  0.000000E+00
  3.906250E-01  2.382812E+01  0.000000E+00
  3.906250E-01  2.421875E+01  0.000000E+00
  3.906250E-01  2.460938E+01  0.000000E+00
  7.812500E-01  0.000000E+00  0.000000E+00
  7.812500E-01  3.906250E-01  0.000000E+00
  7.812500E-01  7.812500E-01  0.000000E+00
  7.812500E-01  1.171875E+00  0.000000E+00
  7.812500E-01  1.562500E+00  0.000000E+00
  7.812500E-01  1.953125E+00  0.000000E+00
  7.812500E-01  2.343750E+00  0.000000E+00
  7.812500E-01  2.734375E+00  0.000000E+00
  7.812500E-01  3.125000E+00  0.000000E+00
  7.812500E-01  3.515625E+00  0.000000E+00
  7.812500E-01  3.906250E+00  0.000000E+00
  7.812500E-01  4.296875E+00  0.000000E+00
  7.812500E-01  4.687500E+00  0.000000E+00
  7.812500E-01  5.078125E+00  0.000000E+00
  7.812500E-01  5.468750E+00  0.000000E+00
  7.812500E-01  5.859375E+00  0.000000E+00
  7.812500E-01  6.250000E+00  0.000000E+00
  7.812500E-01  6.640625E+00  0.000000E+00
  7.812500E-01  7.031250E+00  0.000000E+00
  7.812500E-01  7.421875E+00  0.000000E+00
  7.812500E-01  7.812500E+00  0.000000E+00
  7.812500E-01  8.203125E+00  0.000000E+00
  7.812500E-01  8.593750E+00  0.000000E+00
  7.812500E-01  8.984375E+00  0.000000E+00
  7.812500E-01  9.375000E+00  0.000000E+00
  7.812500E-01  9.765625E+00  0.000000E+00
  7.812500E-01  1.015625E+01  0.000000E+00
  7.812500E-01  1.054688E+01  0.000000E+00
  7.812500E-01  1.093750E+01  0.000000E+00
  7.812500E-01  1.132812E+01  0.000000E+00
  7.812500E-01  1.171875E+01  0.000000E+00
  7.812500E-01  1.210938E+01  0.000000E+00
  7.812500E-01  1.250000E+01  0.000000E+00
  7.812500E-01  1.289062E+01  0.000000E+00
  7.812500E-01  1.328125E+01  0.000000E+00
  7.812500E-01  1.367188E+01  0.000000E+00
  7.812500E-01  1.406250E+01  0.000000E+00
  7.812500E-01  1.445312E+01  0.000000E+00
  7.812500E-01  1.484375E+01  0.000000E+00
  7.812500E-01  1.523438E+01  0.000000E+00
  7.812500E-01  1.562500E+01  0.000000E+00
  7.812500E-01  1.601562E+01  0.000000E+00
  7.812500E-01  1.640625E+01  0.000000E+00
  7.812500E-01  1.679688E+01  0.000000E+00
  7.812500E-01  1.718750E+01  0.000000E+00
  7.812500E-01  1.757812E+01  0.000000E+00
  7.812500E-01  1.796875E+01  0.000000E+00
  7.812500E-01  1.835938E+01  0.000000E+00
  7.812500E-01  1.875000E+01  0.000000E+00
  7.812500E-01  1.914062E+01  0.000000E+00
  7.812500E-01  1.953125E+01  0.000000E+00
  7.812500E-01  1.992188E+01  0.000000E+00
  7.812500E-01  2.031250E+01  0.000000E+00
  7.812500E-01  2.070312E+01  0.000000E+00
  7.812500E-01  2.109375E+01  0.000000E+00
  7.812500E-01  2.148438E+01  0.000000E+00
  7.812500E-01  2.187500E+01  0.000000E+00
  7.812500E-01  2.226562E+01  0.000000E+00
  7.812500E-01  2.265625E+01  0.000000E+00
  7.812500E-01  2.304688E+01  0.000000E+00
  7.812500E-01  2.343750E+01  0.000000E+00
  7.812500E-01  2.382812E+01  0.000000E+00
  7.812500E-01  2.421875E+01  0.000000E+00
  7.812500E-01  2.460938E+01  0.000000E+00
  1.171875E+00  0.000000E+00  0.000000E+00
  1.171875E+00  3.906250E-01  0.000000E+00
  1.171875E+00  7.812500E-01  0.000000E+00
  1.171875E+00  1.171875E+00  0.000000E+00
  1.171875E+00  1.562500E+00  0.000000E+00
  1.171875E+00  1.953125E+00  0.000000E+00
  1.171875E+00  2.343750E+00  0.000000E+00
  1.171875E+00  2.734375E+00  0.000000E+00
  1.171875E+00  3.125000E+00  0.000000E+00
  1.171875E+00  3.515625E+00  0.000000E+00
  1.171875E+00  3.906250E+00  0.000000E+00
  1.171875E+00  4.296875E+00  0.000000E+00
  1.171875E+00  4.687500E+00  0.000000E+00
  1.171875E+00  5.078125E+00  0.000000E+00
  1.171875E+00  5.468750E+00  0.000000E+00
  1.171875E+00  5.859375E+00  0.000000E+00
  1.171875E+00  6.250000E+00  0.000000E+00
  1.171875E+00  6.640625E+00  0.000000E+00
  1.171875E+00  7.031250E+00  0.000000E+00
  1.171875E+00  7.421875E+00  0.000000E+00
  1.171875E+00  7.812500E+00  0.000000E+00
  1.171875E+00  8.203125E+00  0.000000E+00
  1.171875E+00  8.593750E+00  0.000000E+00
  1.171875E+00  8.984375E+00  0.000000E+00
  1.171875E+00  9.375000E+00  0.000000E+00
  1.171875E+00  9.765625E+00  0.000000E+00
  1.171875E+00  1.015625E+01  0.000000E+00
  1.171875E+00  1.054688E+01  0.000000E+00
  1.171875E+00  1.093750E+01  0.000000E+00
  1.171875E+00  1.132812E+01  0.000000E+00
  1.171875E+00  1.171875E+01  0.000000E+00
  1.171875E+00  1.210938E+01  0.000000E+00
  1.171875E+00  1.250000E+01  0.000000E+00
  1.171875E+00  1.289062E+01  0.000000E+00
  1.171875E+00  1.328125E+01  0.000000E+00
  1.171875E+00  1.367188E+01  0.000000E+00
  1.171875E+00  1.406250E+01  0.000000E+00
  1.171875E+00  1.445312E+01  0.000000E+00
[...]
POINT_DATA   4096
SCALARS CON  float  1
LOOKUP_TABLE default
  4.700124E-01
  4.695090E-01
  4.731523E-01
  4.711527E-01
  4.723530E-01
  4.686501E-01
  4.701059E-01
  4.681911E-01
  4.712698E-01
  4.694407E-01
  4.711925E-01
  4.678990E-01
  4.691990E-01
  4.666680E-01
  4.693958E-01
  4.682630E-01
  4.718071E-01
  4.705169E-01
  4.728482E-01
  4.697434E-01
  4.704940E-01
  4.666681E-01
  4.675211E-01
  4.641247E-01
  4.654122E-01
  4.626654E-01
  4.652308E-01
  4.643063E-01
  4.683533E-01
  4.674710E-01
  4.699013E-01
  4.668972E-01
  4.683852E-01
  4.662844E-01
  4.694821E-01
  4.681390E-01
  4.703465E-01
  4.670768E-01
  4.678916E-01
  4.644949E-01
  4.660258E-01
  4.633460E-01
  4.652090E-01
  4.627130E-01
  4.650634E-01
  4.636507E-01
  4.676481E-01
  4.679313E-01
  4.726377E-01
  4.716241E-01
  4.730559E-01
  4.683864E-01
  4.681018E-01
  4.649828E-01
  4.687412E-01
  4.697369E-01
  4.752281E-01
  4.746478E-01
  4.763298E-01
  4.719215E-01
  4.715727E-01
  4.673416E-01
  4.686343E-01
  4.665848E-01
  4.713211E-01
  4.715403E-01
  4.749318E-01
  4.736881E-01
  4.737839E-01
  4.693969E-01
  4.687077E-01
  4.662852E-01
  4.685918E-01
  4.680851E-01
  4.705050E-01
  4.690568E-01
  4.704711E-01
  4.683555E-01
  4.695323E-01
  4.678494E-01
  4.702177E-01
  4.698312E-01
  4.724380E-01
  4.706562E-01
  4.709792E-01
  4.675303E-01
  4.677526E-01
  4.654460E-01
  4.669706E-01
  4.653798E-01
  4.671799E-01
  4.660299E-01
  4.686447E-01
  4.681559E-01
  4.705557E-01
  4.688801E-01
  4.698318E-01
  4.672944E-01
  4.682058E-01
  4.660621E-01
  4.673903E-01
  4.656161E-01
  4.672681E-01
  4.655051E-01
  4.665617E-01
  4.638288E-01
  4.643117E-01
  4.620106E-01
  4.638271E-01
  4.632319E-01
  4.667744E-01
  4.677027E-01
  4.719129E-01
  4.716756E-01
  4.727559E-01
  4.690457E-01
  4.688348E-01
  4.672892E-01
  4.713803E-01
  4.732534E-01
  4.774875E-01
  4.761923E-01
  4.760800E-01
  4.718134E-01
  4.712690E-01
  4.684310E-01
  4.697577E-01
  4.685024E-01
  4.666971E-01
  4.699529E-01
  4.736743E-01
  4.742183E-01
  4.733360E-01
  4.700140E-01
  4.681471E-01
  4.667783E-01
  4.679561E-01
  4.686648E-01
  4.701626E-01
  4.699785E-01
  4.703199E-01
  4.693355E-01
  4.694819E-01
  4.689671E-01
  4.700447E-01
  4.703415E-01
  4.714343E-01
  4.707412E-01
  4.703314E-01
  4.684186E-01
  4.675516E-01
  4.658702E-01
  4.655625E-01
  4.645141E-01
  4.648936E-01
  4.646115E-01
  4.656578E-01
  4.655874E-01
  4.662347E-01
  4.655466E-01
  4.660889E-01
  4.661352E-01
  4.676690E-01
  4.679216E-01
  4.684254E-01
  4.670434E-01
  4.663610E-01
  4.646646E-01
  4.641058E-01
  4.624420E-01
  4.619290E-01
  4.608953E-01
  4.619067E-01
  4.629820E-01
  4.660292E-01
  4.684023E-01
  4.713994E-01
  4.719802E-01
  4.718065E-01
  4.692968E-01
  4.680060E-01
  4.672747E-01
  4.697184E-01
  4.723809E-01
  4.757200E-01
  4.760984E-01
  4.750860E-01
  4.711671E-01
  4.677685E-01
  4.640971E-01
  4.632088E-01
  4.634220E-01
  4.674966E-01
  4.714085E-01
  4.734321E-01
  4.748536E-01
  4.721358E-01
  4.691558E-01
  4.650285E-01
  4.642480E-01
  4.641927E-01
  4.668947E-01
  4.683376E-01
  4.706128E-01
  4.704490E-01
  4.707295E-01
  4.690125E-01
  4.690078E-01
  4.685219E-01
  4.704187E-01
  4.710044E-01
  4.722154E-01
  4.708130E-01
  4.701282E-01
  4.680393E-01
  4.679120E-01
  4.667966E-01
  4.672157E-01
  4.660379E-01
  4.662911E-01
  4.654773E-01
  4.667227E-01
  4.669114E-01
  4.683545E-01
  4.676852E-01
  4.677761E-01
  4.661435E-01
  4.661855E-01
  4.653377E-01
  4.664873E-01
  4.663703E-01
  4.672571E-01
  4.658150E-01
  4.651381E-01
  4.631818E-01
  4.636722E-01
  4.638735E-01
  4.661610E-01
  4.670704E-01
  4.692444E-01
  4.696390E-01
  4.707584E-01
  4.693740E-01
  4.687276E-01
  4.670800E-01
  4.684528E-01
  4.700497E-01
  4.736000E-01
  4.746072E-01
  4.750061E-01
  4.721235E-01
  4.698948E-01
  4.665337E-01
  4.655701E-01
  4.643550E-01
  4.659392E-01
  4.640873E-01
  4.696077E-01
  4.707338E-01
  4.732820E-01
  4.697027E-01
  4.684259E-01
  4.639037E-01
  4.646564E-01
  4.635470E-01
  4.671649E-01
  4.672630E-01
  4.703960E-01
  4.689787E-01
  4.704815E-01
  4.681517E-01
  4.698660E-01
  4.685977E-01
  4.714042E-01
  4.704514E-01
  4.725442E-01
  4.702082E-01
  4.708326E-01
  4.673847E-01
  4.674879E-01
  4.641993E-01
  4.650490E-01
  4.627857E-01
  4.645930E-01
  4.630740E-01
  4.654476E-01
  4.643054E-01
  4.667620E-01
  4.654351E-01
  4.676858E-01
  4.663193E-01
  4.685569E-01
  4.669120E-01
  4.685514E-01
  4.662052E-01
  4.672081E-01
  4.643189E-01
  4.650781E-01
  4.627414E-01
  4.650999E-01
  4.648117E-01
  4.684922E-01
  4.680748E-01
  4.705111E-01
  4.686191E-01
  4.698672E-01
  4.670503E-01
  4.676749E-01
  4.649952E-01
  4.669348E-01
  4.664243E-01
  4.702852E-01
  4.702766E-01
  4.727590E-01
  4.699909E-01
  4.694615E-01
  4.646177E-01
  4.637651E-01
  4.606276E-01
  4.631801E-01
  4.667913E-01
  4.708207E-01
  4.701159E-01
  4.724389E-01
  4.683047E-01
  4.673781E-01
  4.622089E-01
  4.630756E-01
  4.614007E-01
  4.656045E-01
  4.657429E-01
  4.698465E-01
  4.683852E-01
  4.703267E-01
  4.673315E-01
  4.692896E-01
  4.678435E-01
  4.717510E-01
  4.711478E-01
  4.740469E-01
  4.711115E-01
  4.716289E-01
  4.673233E-01
  4.677843E-01
  4.643738E-01
  4.660440E-01
  4.636414E-01
  4.660333E-01
  4.644168E-01
  4.679486E-01
  4.674373E-01
  4.710617E-01
  4.690383E-01
  4.702043E-01
  4.663498E-01
  4.675000E-01
  4.652922E-01
  4.684740E-01
  4.672648E-01
  4.697687E-01
  4.667505E-01
  4.677985E-01
  4.650933E-01
  4.682942E-01
  4.679736E-01
  4.717984E-01
  4.698089E-01
  4.710415E-01
  4.673488E-01
  4.683479E-01
  4.651762E-01
  4.667363E-01
  4.642936E-01
  4.671545E-01
  4.662748E-01
  4.699511E-01
  4.684514E-01
  4.704734E-01
  4.674125E-01
  4.687912E-01
  4.659399E-01
  4.677920E-01
  4.653714E-01
  4.679117E-01
  4.644574E-01
  4.682851E-01
  4.677842E-01
  4.703305E-01
  4.673875E-01
  4.677869E-01
  4.641555E-01
  4.655069E-01
  4.637815E-01
  4.669956E-01
  4.662653E-01
  4.692534E-01
  4.673776E-01
  4.691823E-01
  4.670293E-01
  4.697608E-01
  4.691095E-01
  4.728250E-01
  4.718966E-01
  4.741202E-01
  4.710845E-01
  4.712220E-01
  4.665810E-01
  4.660096E-01
  4.619304E-01
  4.631624E-01
  4.614407E-01
  4.646268E-01
  4.639583E-01
  4.674727E-01
  4.667394E-01
  4.698196E-01
  4.682288E-01
  4.703574E-01
  4.682886E-01
  4.705687E-01
  4.687766E-01
  4.708205E-01
  4.681403E-01
  4.690628E-01
  4.656526E-01
  4.667889E-01
  4.648015E-01
  4.681926E-01
  4.681285E-01
  4.717992E-01
  4.700399E-01
  4.711295E-01
  4.675133E-01
  4.682297E-01
  4.652271E-01
  4.666365E-01
  4.640670E-01
  4.659437E-01
  4.641507E-01
  4.669294E-01
  4.657220E-01
  4.684977E-01
  4.667297E-01
  4.685645E-01
  4.656968E-01
  4.666319E-01
  4.636024E-01
  4.655351E-01
  4.667630E-01
  4.683787E-01
  4.676524E-01
  4.696861E-01
  4.680259E-01
  4.683990E-01
  4.655907E-01
  4.661576E-01
  4.647666E-01
  4.671380E-01
  4.669734E-01
  4.693986E-01
  4.681778E-01
  4.691948E-01
  4.673161E-01
  4.691416E-01
  4.692128E-01
  4.728180E-01
  4.730905E-01
  4.748659E-01
  4.720970E-01
  4.710719E-01
  4.668861E-01
  4.661719E-01
  4.636495E-01
  4.651517E-01
  4.645250E-01
  4.671158E-01
  4.669763E-01
  4.700009E-01
  4.703061E-01
  4.730843E-01
  4.718239E-01
  4.722213E-01
  4.692613E-01
  4.697663E-01
  4.683887E-01
  4.704991E-01
  4.694627E-01
  4.704811E-01
  4.678721E-01
  4.682019E-01
  4.665910E-01
  4.691149E-01
  4.692839E-01
  4.717042E-01
  4.699176E-01
  4.700807E-01
  4.673200E-01
  4.679894E-01
  4.661855E-01
  4.673864E-01
  4.658241E-01
  4.675428E-01
  4.667200E-01
  4.686627E-01
  4.671169E-01
  4.679812E-01
  4.660987E-01
  4.677874E-01
  4.671316E-01
  4.692540E-01
  4.678098E-01
  4.686909E-01
  4.632664E-01
  4.650459E-01
  4.656318E-01
  4.681071E-01
  4.683419E-01
  4.698076E-01
  4.689509E-01
  4.696967E-01
  4.686948E-01
  4.697413E-01
  4.690282E-01
  4.698697E-01
  4.684590E-01
  4.687618E-01
  4.677533E-01
  4.695257E-01
  4.702683E-01
  4.729283E-01
  4.730331E-01
  4.737461E-01
  4.714048E-01
  4.700186E-01
  4.665042E-01
  4.652134E-01
  4.631591E-01
  4.642942E-01
  4.646432E-01
  4.670998E-01
  4.673754E-01
  4.689994E-01
  4.685578E-01
  4.699086E-01
  4.694421E-01
  4.708590E-01
  4.705923E-01
  4.721793E-01
  4.715219E-01
  4.718023E-01
  4.693377E-01
  4.683075E-01
  4.658036E-01
  4.660112E-01
  4.653854E-01
  4.672786E-01
  4.674802E-01
  4.691101E-01
  4.683282E-01
  4.690398E-01
  4.679888E-01
  4.689465E-01
  4.680142E-01
  4.685903E-01
  4.671242E-01
  4.676629E-01
  4.668214E-01
  4.681214E-01
  4.675396E-01
  4.684839E-01
  4.673193E-01
  4.677965E-01
  4.662348E-01
  4.662056E-01
  4.641820E-01
  4.642536E-01
  4.648969E-01
  4.653487E-01
  4.658001E-01
  4.680610E-01
  4.689323E-01
  4.701652E-01
  4.694519E-01
  4.696044E-01
  4.688196E-01
  4.696520E-01
  4.695600E-01
  4.703963E-01
  4.694541E-01
  4.691606E-01
  4.678060E-01
  4.684893E-01
  4.691865E-01
  4.717264E-01
  4.726921E-01
  4.734453E-01
  4.714350E-01
  4.696429E-01
  4.668267E-01
  4.662462E-01
  4.659113E-01
  4.678068E-01
  4.687936E-01
  4.704492E-01
  4.702373E-01
  4.708721E-01
  4.704712E-01
  4.713546E-01
  4.707935E-01
  4.709111E-01
  4.696768E-01
  4.698987E-01
  4.693324E-01
  4.699065E-01
  4.688303E-01
  4.683959E-01
  4.667128E-01
  4.666998E-01
  4.663099E-01
  4.676240E-01
  4.676985E-01
  4.684124E-01
  4.675595E-01
  4.680393E-01
  4.678980E-01
  4.692069E-01
  4.690121E-01
  4.694026E-01
  4.685170E-01
  4.693619E-01
  4.696702E-01
  4.710557E-01
  4.703818E-01
  4.699164E-01
  4.680725E-01
  4.679926E-01
  4.674502E-01
  4.681458E-01
  4.670664E-01
  4.665246E-01
  4.618222E-01
  4.632638E-01
  4.643318E-01
  4.671053E-01
  4.684346E-01
  4.704672E-01
  4.704399E-01
  4.710801E-01
  4.701770E-01
  4.706326E-01
  4.698512E-01
  4.701284E-01
  4.687014E-01
  4.684172E-01
  4.672884E-01
  4.683607E-01
  4.689814E-01
  4.711438E-01
  4.714988E-01
  4.720925E-01
  4.702547E-01
  4.689440E-01
  4.662745E-01
  4.656229E-01
  4.649651E-01
  4.668687E-01
  4.680451E-01
  4.700454E-01
  4.695964E-01
  4.693840E-01
  4.675455E-01
  4.674346E-01
  4.668584E-01
  4.683666E-01
  4.690158E-01
  4.707689E-01
  4.703272E-01
  4.698849E-01
  4.671781E-01
  4.657233E-01
  4.638687E-01
  4.645131E-01
  4.646639E-01
  4.662038E-01
  4.661030E-01
  4.670053E-01
  4.667176E-01
  4.681296E-01
  4.685368E-01
  4.700001E-01
  4.694212E-01
  4.693659E-01
  4.678308E-01
  4.681529E-01
  4.680674E-01
  4.698083E-01
  4.700907E-01
  4.709766E-01
  4.697864E-01
  4.692821E-01
  4.670709E-01
  4.658991E-01
  4.634633E-01
  4.628112E-01
  4.646116E-01
  4.652197E-01
  4.653346E-01
  4.676916E-01
  4.683080E-01
  4.697488E-01
  4.687507E-01
  4.689319E-01
  4.676978E-01
  4.685630E-01
  4.681962E-01
  4.692863E-01
  4.682045E-01
  4.681504E-01
  4.665009E-01
  4.672036E-01
  4.674697E-01
  4.701380E-01
  4.710596E-01
  4.724210E-01
  4.706546E-01
  4.694407E-01
  4.666703E-01
  4.665551E-01
  4.663292E-01
  4.687932E-01
  4.698217E-01
  4.716779E-01
  4.708372E-01
  4.708559E-01
  4.691972E-01
  4.693914E-01
  4.681488E-01
  4.684571E-01
  4.671835E-01
  4.677159E-01
  4.668769E-01
  4.675746E-01
  4.663602E-01
  4.664915E-01
  4.651783E-01
  4.659879E-01
  4.657691E-01
  4.673452E-01
  4.670735E-01
  4.679923E-01
  4.672115E-01
  4.683223E-01
  4.681533E-01
  4.693969E-01
  4.683616E-01
  4.683446E-01
  4.669443E-01
  4.681195E-01
  4.686896E-01
  4.710216E-01
  4.710065E-01
  4.715595E-01
  4.699613E-01
  4.700145E-01
  4.687056E-01
  4.689001E-01
  4.670697E-01
  4.665056E-01
  4.627969E-01
  4.644806E-01
  4.648173E-01
  4.672302E-01
  4.676663E-01
  4.695195E-01
  4.688231E-01
  4.693829E-01
  4.678479E-01
  4.683442E-01
  4.672007E-01
  4.678971E-01
  4.665072E-01
  4.669503E-01
  4.659465E-01
  4.675424E-01
  4.679048E-01
  4.703309E-01
  4.705601E-01
  4.718889E-01
  4.703314E-01
  4.696715E-01
  4.666388E-01
  4.657738E-01
  4.641359E-01
  4.657475E-01
  4.663962E-01
  4.688142E-01
  4.683917E-01
  4.686825E-01
  4.665128E-01
  4.664479E-01
  4.653120E-01
  4.668800E-01
  4.670139E-01
  4.688137E-01
  4.679696E-01
  4.680220E-01
  4.656088E-01
  4.652101E-01
  4.637167E-01
  4.649596E-01
  4.648092E-01
  4.665099E-01
  4.661186E-01
  4.674835E-01
  4.670581E-01
  4.685617E-01
  4.679889E-01
  4.687486E-01
  4.670330E-01
  4.669046E-01
  4.652122E-01
  4.661700E-01
  4.661324E-01
  4.685084E-01
  4.690340E-01
  4.709396E-01
  4.701441E-01
  4.702498E-01
  4.676701E-01
  4.665852E-01
  4.638771E-01
  4.637948E-01
  4.667580E-01
  4.672657E-01
  4.667413E-01
  4.680066E-01
  4.678396E-01
  4.686626E-01
  4.674446E-01
  4.672972E-01
  4.658385E-01
  4.662770E-01
  4.657258E-01
  4.667211E-01
  4.660891E-01
  4.666801E-01
  4.659508E-01
  4.671707E-01
  4.676621E-01
  4.700700E-01
  4.709600E-01
  4.725076E-01
  4.713984E-01
  4.705566E-01
  4.677247E-01
  4.666258E-01
  4.650745E-01
  4.660869E-01
  4.663979E-01
  4.682011E-01
  4.681414E-01
  4.690242E-01
  4.682367E-01
  4.688247E-01
  4.678496E-01
  4.680186E-01
  4.665383E-01
  4.665905E-01
  4.656113E-01
  4.664829E-01
  4.661071E-01
  4.670813E-01
  4.664601E-01
  4.672308E-01
  4.667125E-01
  4.677993E-01
  4.674497E-01
  4.682915E-01
  4.673900E-01
  4.677163E-01
  4.665195E-01
  4.666636E-01
  4.653276E-01
  4.656520E-01
  4.651919E-01
  4.669615E-01
  4.677155E-01
  4.696107E-01
  4.692890E-01
  4.696582E-01
  4.683013E-01
  4.685154E-01
  4.675867E-01
  4.682493E-01
  4.674230E-01
  4.678505E-01
  4.661659E-01
  4.671133E-01
  4.670206E-01
  4.674731E-01
  4.675103E-01
  4.682924E-01
  4.681995E-01
  4.682432E-01
  4.672798E-01
  4.668552E-01
  4.659037E-01
  4.657225E-01
  4.651685E-01
  4.657526E-01
  4.663866E-01
  4.681213E-01
  4.692270E-01
  4.705947E-01
  4.709361E-01
  4.715728E-01
  4.710874E-01
  4.703634E-01
  4.680043E-01
  4.657196E-01
  4.631983E-01
  4.625451E-01
  4.626829E-01
  4.642466E-01
  4.650422E-01
  4.657539E-01
  4.652886E-01
  4.655264E-01
  4.657106E-01
  4.670539E-01
  4.678003E-01
  4.686329E-01
  4.680453E-01
  4.674896E-01
  4.662107E-01
  4.659257E-01
  4.655386E-01
  4.661373E-01
  4.662061E-01
  4.668502E-01
  4.667884E-01
  4.672289E-01
  4.667992E-01
  4.666613E-01
  4.656434E-01
  4.652741E-01
  4.646362E-01
  4.651753E-01
  4.655530E-01
  4.667018E-01
  4.670330E-01
  4.676611E-01
  4.673910E-01
  4.675290E-01
  4.667417E-01
  4.662158E-01
  4.649112E-01
  4.645788E-01
  4.643802E-01
  4.655011E-01
  4.712106E-01
  4.704092E-01
  4.694231E-01
  4.681327E-01
  4.677062E-01
  4.671600E-01
  4.670460E-01
  4.664071E-01
  4.661672E-01
  4.655952E-01
  4.655551E-01
  4.652054E-01
  4.654766E-01
  4.656934E-01
  4.667788E-01
  4.677665E-01
  4.692303E-01
  4.701062E-01
  4.711282E-01
  4.713509E-01
  4.714032E-01
  4.702277E-01
  4.686943E-01
  4.663736E-01
  4.647583E-01
  4.635587E-01
  4.637613E-01
  4.642242E-01
  4.653142E-01
  4.659166E-01
  4.669111E-01
  4.675495E-01
  4.685061E-01
  4.685578E-01
  4.683286E-01
  4.672197E-01
  4.666376E-01
  4.661962E-01
  4.667512E-01
  4.670956E-01
  4.676901E-01
  4.676316E-01
  4.679843E-01
  4.680523E-01
  4.684483E-01
  4.678814E-01
  4.669932E-01
  4.652766E-01
  4.642306E-01
  4.635514E-01
  4.642513E-01
  4.653445E-01
  4.673027E-01
  4.687104E-01
  4.697419E-01
  4.691272E-01
  4.678313E-01
  4.656729E-01
  4.643360E-01
  4.636269E-01
  4.646356E-01
  4.663049E-01
  4.688052E-01
  4.703870E-01
  4.708391E-01
  4.702859E-01
  4.695621E-01
  4.675248E-01
  4.671572E-01
  4.665459E-01
  4.674020E-01
  4.670906E-01
  4.674496E-01
  4.663527E-01
  4.660368E-01
  4.646528E-01
  4.647711E-01
  4.647423E-01
  4.667210E-01
  4.680007E-01
  4.698428E-01
  4.697185E-01
  4.700515E-01
  4.693163E-01
  4.697846E-01
  4.688767E-01
  4.681273E-01
  4.654193E-01
  4.636154E-01
  4.616051E-01
  4.620036E-01
  4.623374E-01
  4.638544E-01
  4.638535E-01
  4.646273E-01
  4.647366E-01
  4.666981E-01
  4.680412E-01
  4.699950E-01
  4.697279E-01
  4.693092E-01
  4.672186E-01
  4.663500E-01
  4.650996E-01
  4.656505E-01
  4.656618E-01
  4.669477E-01
  4.671117E-01
  4.679592E-01
  4.670851E-01
  4.665378E-01
  4.645554E-01
  4.639268E-01
  4.631687E-01
  4.645949E-01
  4.657278E-01
  4.679253E-01
  4.683159E-01
  4.686590E-01
  4.670618E-01
  4.662068E-01
  4.644621E-01
  4.641098E-01
  4.630923E-01
  4.637673E-01
  4.643750E-01
  4.670059E-01
  4.688208E-01
  4.746030E-01
  4.724725E-01
  4.710763E-01
  4.679873E-01
  4.672069E-01
  4.653949E-01
  4.657469E-01
  4.646650E-01
  4.654269E-01
  4.645079E-01
  4.652121E-01
  4.641753E-01
  4.650210E-01
  4.645962E-01
  4.663342E-01
  4.665427E-01
  4.682118E-01
  4.677332E-01
  4.686506E-01
  4.678387E-01
  4.687847E-01
  4.678714E-01
  4.682169E-01
  4.663906E-01
  4.661417E-01
  4.645676E-01
  4.653459E-01
  4.649267E-01
  4.663557E-01
  4.660791E-01
  4.676955E-01
  4.679861E-01
  4.700777E-01
  4.698800E-01
  4.702887E-01
  4.680868E-01
  4.674436E-01
  4.656811E-01
  4.663826E-01
  4.658303E-01
  4.670838E-01
  4.667170E-01
  4.682896E-01
  4.682768E-01
  4.694901E-01
  4.678821E-01
  4.668350E-01
  4.637546E-01
  4.631570E-01
  4.622985E-01
  4.644773E-01
  4.656699E-01
  4.685397E-01
  4.690415E-01
  4.701502E-01
  4.684029E-01
  4.676038E-01
  4.650651E-01
  4.649121E-01
  4.642358E-01
  4.666045E-01
  4.683476E-01
  4.720870E-01
  4.733212E-01
  4.716626E-01
  4.700997E-01
  4.698904E-01
  4.669761E-01
  4.668838E-01
  4.650997E-01
  4.661730E-01
  4.649459E-01
  4.659706E-01
  4.644244E-01
  4.651408E-01
  4.634970E-01
  4.645765E-01
  4.638965E-01
  4.661800E-01
  4.660845E-01
  4.676874E-01
  4.660102E-01
  4.663907E-01
  4.648852E-01
  4.666007E-01
  4.662591E-01
  4.677867E-01
  4.659978E-01
  4.660915E-01
  4.641487E-01
  4.654681E-01
  4.650061E-01
  4.668222E-01
  4.657390E-01
  4.668867E-01
  4.661918E-01
  4.686912E-01
  4.690496E-01
  4.711101E-01
  4.695280E-01
  4.692545E-01
  4.661937E-01
  4.658513E-01
  4.638991E-01
  4.652331E-01
  4.649187E-01
  4.673662E-01
  4.672583E-01
  4.688050E-01
  4.668980E-01
  4.664953E-01
  4.635058E-01
  4.635592E-01
  4.624026E-01
  4.647416E-01
  4.652023E-01
  4.677998E-01
  4.672399E-01
  4.683180E-01
  4.667451E-01
  4.678463E-01
  4.669724E-01
  4.685584E-01
  4.674578E-01
  4.685506E-01
  4.675759E-01
  4.696623E-01
  4.697085E-01
  4.726850E-01
  4.700239E-01
  4.702819E-01
  4.671905E-01
  4.675269E-01
  4.647170E-01
  4.653585E-01
  4.629327E-01
  4.641398E-01
  4.624319E-01
  4.643653E-01
  4.632508E-01
  4.655627E-01
  4.645563E-01
  4.666385E-01
  4.650337E-01
  4.662872E-01
  4.640088E-01
  4.652231E-01
  4.637447E-01
  4.662518E-01
  4.658080E-01
  4.684799E-01
  4.673547E-01
  4.691321E-01
  4.675724E-01
  4.694874E-01
  4.681686E-01
  4.699980E-01
  4.684402E-01
  4.704180E-01
  4.694620E-01
  4.717171E-01
  4.698428E-01
  4.701285E-01
  4.665049E-01
  4.665264E-01
  4.642213E-01
  4.661041E-01
  4.651002E-01
  4.674784E-01
  4.666738E-01
  4.693587E-01
  4.686410E-01
  4.704552E-01
  4.677215E-01
  4.672802E-01
  4.634736E-01
  4.638768E-01
  4.622759E-01
  4.649679E-01
  4.647872E-01
  4.678837E-01
  4.674427E-01
  4.699921E-01
  4.689742E-01
  4.710916E-01
  4.698381E-01
  4.718111E-01
  4.703969E-01
  4.722610E-01
  4.709225E-01
  4.729375E-01
  4.714335E-01
  4.681174E-01
  4.669301E-01
  4.686785E-01
  4.666468E-01
  4.677897E-01
  4.656693E-01
  4.669349E-01
  4.647803E-01
  4.658567E-01
  4.636586E-01
  4.650652E-01
  4.635320E-01
  4.657378E-01
  4.648923E-01
  4.673435E-01
  4.659433E-01
  4.670292E-01
  4.641404E-01
  4.647243E-01
  4.629392E-01
  4.656430E-01
  4.655224E-01
  4.683005E-01
  4.668571E-01
  4.682232E-01
  4.664595E-01
  4.685752E-01
  4.675441E-01
  4.694178E-01
  4.673564E-01
  4.685039E-01
  4.667969E-01
  4.689888E-01
  4.678973E-01
  4.695950E-01
  4.672369E-01
  4.677639E-01
  4.649366E-01
  4.657965E-01
  4.639590E-01
  4.662455E-01
  4.658672E-01
  4.690236E-01
  4.683917E-01
  4.701479E-01
  4.675841E-01
  4.678026E-01
  4.647800E-01
  4.656869E-01