# vtk DataFile Version 2.0
title
ASCII
DATASET STRUCTURED_GRID
DIMENSIONS   64   64    1
POINTS   4096  float
  0.000000E+00  0.000000E+00  0.000000E+00
  0.000000E+00  3.906250E-01  0.000000E+00
  0.000000E+00  7.812500E-01  0.000000E+00
  0.000000E+00  1.171875E+00  0.000000E+00
  0.000000E+00  1.562500E+00  0.000000E+00
  0.000000E+00  1.953125E+00  0.000000E+00
  0.000000E+00  2.343750E+00  0.000000E+00
  0.000000E+00  2.734375E+00  0.000000E+00
  0.000000E+00  3.125000E+00  0.000000E+00
  0.000000E+00  3.515625E+00  0.000000E+00
  0.000000E+00  3.906250E+00  0.000000E+00
  0.000000E+00  4.296875E+00  0.000000E+00
  0.000000E+00  4.687500E+00  0.000000E+00
  0.000000E+00  5.078125E+00  0.000000E+00
  0.000000E+00  5.468750E+00  0.000000E+00
  0.000000E+00  5.859375E+00  0.000000E+00
  0.000000E+00  6.250000E+00  0.000000E+00
  0.000000E+00  6.640625E+00  0.000000E+00
  0.000000E+00  7.031250E+00  0.000000E+00
  0.000000E+00  7.421875E+00  0.000000E+00
  0.000000E+00  7.812500E+00  0.000000E+00
  0.000000E+00  8.203125E+00  0.000000E+00
  0.000000E+00  8.593750E+00  0.000000E+00
  0.000000E+00  8.984375E+00  0.000000E+00
  0.000000E+00  9.375000E+00  0.000000E+00
  0.000000E+00  9.765625E+00  0.000000E+00
  0.000000E+00  1.015625E+01  0.000000E+00
  0.000000E+00  1.054688E+01  0.000000E+00
  0.000000E+00  1.093750E+01  0.000000E+00
  0.000000E+00  1.132812E+01  0.000000E+00
  0.000000E+00  1.171875E+01  0.000000E+00
  0.000000E+00  1.210938E+01  0.000000E+00
  0.000000E+00  1.250000E+01  0.000000E+00
  0.000000E+00  1.289062E+01  0.000000E+00
  0.000000E+00  1.328125E+01  0.000000E+00
  0.000000E+00  1.367188E+01  0.000000E+00
  0.000000E+00  1.406250E+01  0.000000E+00
  0.000000E+00  1.445312E+01  0.000000E+00
  0.000000E+00  1.484375E+01  0.000000E+00
  0.000000E+00  1.523438E+01  0.000000E+00
  0.000000E+00  1.562500E+01  0.000000E+00
  0.000000E+00  1.601562E+01  0.000000E+00
  0.000000E+00  1.640625E+01  0.000000E+00
  0.000000E+00  1.679688E+01  0.000000E+00
  0.000000E+00  1.718750E+01  0.000000E+00
  0.000000E+00  1.757812E+01  0.000000E+00
  0.000000E+00  1.796875E+01  0.000000E+00
  0.000000E+00  1.835938E+01  0.000000E+00
  0.000000E+00  1.875000E+01  0.000000E+00
  0.000000E+00  1.914062E+01  0.000000E+00
  0.000000E+00  1.953125E+01  0.000000E+00
  0.000000E+00  1.992188E+01  0.000000E+00
  0.000000E+00  2.031250E+01  0.000000E+00
  0.000000E+00  2.070312E+01  0.000000E+00
  0.000000E+00  2.109375E+01  0.000000E+00
  0.000000E+00  2.148438E+01  0.000000E+00
  0.000000E+00  2.187500E+01  0.000000E+00
  0.000000E+00  2.226562E+01  0.000000E+00
  0.000000E+00  2.265625E+01  0.000000E+00
  0.000000E+00  2.304688E+01  0.000000E+00
  0.000000E+00  2.343750E+01  0.000000E+00
  0.000000E+00  2.382812E+01  0.000000E+00
  0.000000E+00  2.421875E+01  0.000000E+00
  0.000000E+00  2.460938E+01  0.000000E+00
  3.906250E-01  0.000000E+00  0.000000E+00
  3.906250E-01  3.906250E-01  0.000000E+00
  3.906250E-01  7.812500E-01  0.000000E+00
  3.906250E-01  1.171875E+00  0.000000E+00
  3.906250E-01  1.562500E+00  0.000000E+00
  3.906250E-01  1.953125E+00  0.000000E+00
  3.906250E-01  2.343750E+00  0.000000E+00
  3.906250E-01  2.734375E+00  0.000000E+00
  3.906250E-01  3.125000E+00  0.000000E+00
  3.906250E-01  3.515625E+00  0.000000E+00
  3.906250E-01  3.906250E+00  0.000000E+00
  3.906250E-01  4.296875E+00  0.000000E+00
  3.906250E-01  4.687500E+00  0.000000E+00
  3.906250E-01  5.078125E+00  0.000000E+00
  3.906250E-01  5.468750E+00  0.000000E+00
  3.906250E-01  5.859375E+00  0.000000E+00
  3.906250E-01  6.250000E+00  0.000000E+00
  3.906250E-01  6.640625E+00  0.000000E+00
  3.906250E-01  7.031250E+00  0.000000E+00
  3.906250E-01  7.421875E+00  0.000000E+00
  3.906250E-01  7.812500E+00  0.000000E+00
  3.906250E-01  8.203125E+00  0.000000E+00
  3.906250E-01  8.593750E+00  0.000000E+00
  3.906250E-01  8.984375E+00  0.000000E+00
  3.906250E-01  9.375000E+00  0.000000E+00
  3.906250E-01  9.765625E+00  0.000000E+00
  3.906250E-01  1.015625E+01  0.000000E+00
  3.906250E-01  1.054688E+01  0.000000E+00
  3.906250E-01  1.093750E+01  0.000000E+00
  3.906250E-01  1.132812E+01  0.000000E+00
  3.906250E-01  1.171875E+01  0.000000E+00
  3.906250E-01  1.210938E+01  0.000000E+00
  3.906250E-01  1.250000E+01  0.000000E+00
  3.906250E-01  1.289062E+01  0.000000E+00
  3.906250E-01  1.328125E+01  0.000000E+00
  3.906250E-01  1.367188E+01  0.000000E+00
  3.906250E-01  1.406250E+01  0.000000E+00
  3.906250E-01  1.445312E+01  0.000000E+00
  3.906250E-01  1.484375E+01  0.000000E+00
  3.906250E-01  1.523438E+01  0.000000E+00
  3.906250E-01  1.562500E+01  0.000000E+00
  3.906250E-01  1.601562E+01  0.000000E+00
  3.906250E-01  1.640625E+01  0.000000E+00
  3.906250E-01  1.679688E+01  0.000000E+00
  3.906250E-01  1.718750E+01  0.000000E+00
  3.906250E-01  1.757812E+01  0.000000E+00
  3.906250E-01  1.796875E+01  0.000000E+00
  3.906250E-01  1.835938E+01  0.000000E+00
  3.906250E-01  1.875000E+01  0.000000E+00
  3.906250E-01  1.914062E+01  0.000000E+00
  3.906250E-01  1.953125E+01  0.000000E+00
  3.906250E-01  1.992188E+01  0.000000E+00
  3.906250E-01  2.031250E+01  0.000000E+00
  3.906250E-01  2.070312E+01  0.000000E+00
  3.906250E-01  2.109375E+01  0.000000E+00
  3.906250E-01  2.148438E+01  0.000000E+00
  3.906250E-01  2.187500E+01  0.000000E+00
  3.906250E-01  2.226562E+01  0.000000E+00
  3.906250E-01  2.265625E+01  0.000000E+00
  3.906250E-01  2.304688E+01  0.000000E+00
  3.906250E-01  2.343750E+01  0.000000E+00
  3.906250E-01  2.382812E+01  0.000000E+00
  3.906250E-01  2.421875E+01  0.000000E+00
  3.906250E-01  2.460938E+01  0.000000E+00
  7.812500E-01  0.000000E+00  0.000000E+00
  7.812500E-01  3.906250E-01  0.000000E+00
  7.812500E-01  7.812500E-01  0.000000E+00
  7.812500E-01  1.171875E+00  0.000000E+00
  7.812500E-01  1.562500E+00  0.000000E+00
  7.812500E-01  1.953125E+00  0.000000E+00
  7.812500E-01  2.343750E+00  0.000000E+00
  7.812500E-01  2.734375E+00  0.000000E+00
  7.812500E-01  3.125000E+00  0.000000E+00
  7.812500E-01  3.515625E+00  0.000000E+00
  7.812500E-01  3.906250E+00  0.000000E+00
  7.812500E-01  4.296875E+00  0.000000E+00
  7.812500E-01  4.687500E+00  0.000000E+00
  7.812500E-01  5.078125E+00  0.000000E+00
  7.812500E-01  5.468750E+00  0.000000E+00
  7.812500E-01  5.859375E+00  0.000000E+00
  7.812500E-01  6.250000E+00  0.000000E+00
  7.812500E-01  6.640625E+00  0.000000E+00
  7.812500E-01  7.031250E+00  0.000000E+00
  7.812500E-01  7.421875E+00  0.000000E+00
  7.812500E-01  7.812500E+00  0.000000E+00
  7.812500E-01  8.203125E+00  0.000000E+00
  7.812500E-01  8.593750E+00  0.000000E+00
  7.812500E-01  8.984375E+00  0.000000E+00
  7.812500E-01  9.375000E+00  0.000000E+00
  7.812500E-01  9.765625E+00  0.000000E+00
  7.812500E-01  1.015625E+01  0.000000E+00
  7.812500E-01  1.054688E+01  0.000000E+00
  7.812500E-01  1.093750E+01  0.000000E+00
  7.812500E-01  1.132812E+01  0.000000E+00
  7.812500E-01  1.171875E+01  0.000000E+00
  7.812500E-01  1.210938E+01  0.000000E+00
  7.812500E-01  1.250000E+01  0.000000E+00
  7.812500E-01  1.289062E+01  0.000000E+00
  7.812500E-01  1.328125E+01  0.000000E+00
  7.812500E-01  1.367188E+01  0.000000E+00
  7.812500E-01  1.406250E+01  0.000000E+00
  7.812500E-01  1.445312E+01  0.000000E+00
  7.812500E-01  1.484375E+01  0.000000E+00
  7.812500E-01  1.523438E+01  0.000000E+00
  7.812500E-01  1.562500E+01  0.000000E+00
  7.812500E-01  1.601562E+01  0.000000E+00
  7.812500E-01  1.640625E+01  0.000000E+00
  7.812500E-01  1.679688E+01  0.000000E+00
  7.812500E-01  1.718750E+01  0.000000E+00
  7.812500E-01  1.757812E+01  0.000000E+00
  7.812500E-01  1.796875E+01  0.000000E+00
  7.812500E-01  1.835938E+01  0.000000E+00
  7.812500E-01  1.875000E+01  0.000000E+00
  7.812500E-01  1.914062E+01  0.000000E+00
  7.812500E-01  1.953125E+01  0.000000E+00
  7.812500E-01  1.992188E+01  0.000000E+00
  7.812500E-01  2.031250E+01  0.000000E+00
  7.812500E-01  2.070312E+01  0.000000E+00
  7.812500E-01  2.109375E+01  0.000000E+00
  7.812500E-01  2.148438E+01  0.000000E+00
  7.812500E-01  2.187500E+01  0.000000E+00
  7.812500E-01  2.226562E+01  0.000000E+00
  7.812500E-01  2.265625E+01  0.000000E+00
  7.812500E-01  2.304688E+01  0.000000E+00
  7.812500E-01  2.343750E+01  0.000000E+00
  7.812500E-01  2.382812E+01  0.000000E+00
  7.812500E-01  2.421875E+01  0.000000E+00
  7.812500E-01  2.460938E+01  0.000000E+00
  1.171875E+00  0.000000E+00  0.000000E+00
  1.171875E+00  3.906250E-01  0.000000E+00
  1.171875E+00  7.812500E-01  0.000000E+00
  1.171875E+00  1.171875E+00  0.000000E+00
  1.171875E+00  1.562500E+00  0.000000E+00
  1.171875E+00  1.953125E+00  0.000000E+00
  1.171875E+00  2.343750E+00  0.000000E+00
  1.171875E+00  2.734375E+00  0.000000E+00
  1.171875E+00  3.125000E+00  0.000000E+00
  1.171875E+00  3.515625E+00  0.000000E+00
  1.171875E+00  3.906250E+00  0.000000E+00
  1.171875E+00  4.296875E+00  0.000000E+00
  1.171875E+00  4.687500E+00  0.000000E+00
  1.171875E+00  5.078125E+00  0.000000E+00
  1.171875E+00  5.468750E+00  0.000000E+00
  1.171875E+00  5.859375E+00  0.000000E+00
  1.171875E+00  6.250000E+00  0.000000E+00
  1.171875E+00  6.640625E+00  0.000000E+00
  1.171875E+00  7.031250E+00  0.000000E+00
  1.171875E+00  7.421875E+00  0.000000E+00
  1.171875E+00  7.812500E+00  0.000000E+00
  1.171875E+00  8.203125E+00  0.000000E+00
  1.171875E+00  8.593750E+00  0.000000E+00
  1.171875E+00  8.984375E+00  0.000000E+00
  1.171875E+00  9.375000E+00  0.000000E+00
  1.171875E+00  9.765625E+00  0.000000E+00
  1.171875E+00  1.015625E+01  0.000000E+00
  1.171875E+00  1.054688E+01  0.000000E+00
  1.171875E+00  1.093750E+01  0.000000E+00
  1.171875E+00  1.132812E+01  0.000000E+00
  1.171875E+00  1.171875E+01  0.000000E+00
  1.171875E+00  1.210938E+01  0.000000E+00
  1.171875E+00  1.250000E+01  0.000000E+00
  1.171875E+00  1.289062E+01  0.000000E+00
  1.171875E+00  1.328125E+01  0.000000E+00
  1.171875E+00  1.367188E+01  0.000000E+00
  1.171875E+00  1.406250E+01  0.000000E+00
  1.171875E+00  1.445312E+01  0.000000E+00
[...]
POINT_DATA   4096
SCALARS CON  float  1
LOOKUP_TABLE default
  4.695451E-01
  4.683503E-01
  4.705286E-01
  4.691063E-01
  4.708441E-01
  4.689312E-01
  4.702818E-01
  4.681759E-01
  4.695393E-01
  4.676041E-01
  4.692277E-01
  4.675858E-01
  4.695031E-01
  4.681367E-01
  4.702860E-01
  4.690623E-01
  4.712045E-01
  4.697732E-01
  4.714962E-01
  4.694829E-01
  4.705677E-01
  4.679964E-01
  4.687285E-01
  4.660827E-01
  4.670168E-01
  4.647787E-01
  4.662145E-01
  4.644613E-01
  4.662908E-01
  4.648182E-01
  4.668369E-01
  4.655001E-01
  4.676244E-01
  4.663524E-01
  4.684595E-01
  4.670400E-01
  4.688462E-01
  4.669998E-01
  4.683369E-01
  4.661000E-01
  4.672464E-01
  4.650993E-01
  4.666238E-01
  4.650675E-01
  4.672527E-01
  4.662556E-01
  4.687495E-01
  4.677333E-01
  4.699044E-01
  4.683830E-01
  4.700466E-01
  4.681897E-01
  4.697903E-01
  4.681283E-01
  4.700560E-01
  4.686677E-01
  4.706519E-01
  4.690361E-01
  4.705730E-01
  4.684626E-01
  4.696647E-01
  4.675303E-01
  4.690467E-01
  4.674557E-01
  4.712531E-01
  4.704227E-01
  4.714784E-01
  4.701368E-01
  4.706215E-01
  4.688380E-01
  4.691493E-01
  4.675024E-01
  4.681997E-01
  4.670622E-01
  4.682589E-01
  4.675199E-01
  4.689857E-01
  4.684074E-01
  4.699593E-01
  4.694042E-01
  4.708926E-01
  4.701422E-01
  4.712712E-01
  4.700119E-01
  4.705591E-01
  4.687692E-01
  4.689703E-01
  4.671145E-01
  4.675521E-01
  4.661729E-01
  4.672000E-01
  4.663711E-01
  4.677791E-01
  4.670918E-01
  4.684074E-01
  4.674648E-01
  4.684678E-01
  4.672557E-01
  4.680942E-01
  4.668305E-01
  4.676928E-01
  4.664715E-01
  4.673520E-01
  4.661199E-01
  4.669966E-01
  4.658259E-01
  4.668762E-01
  4.659963E-01
  4.674039E-01
  4.668550E-01
  4.684691E-01
  4.679416E-01
  4.694001E-01
  4.686182E-01
  4.698402E-01
  4.689438E-01
  4.702158E-01
  4.694912E-01
  4.709467E-01
  4.702894E-01
  4.716125E-01
  4.706290E-01
  4.715316E-01
  4.701880E-01
  4.709323E-01
  4.696946E-01
  4.707598E-01
  4.699122E-01
  4.681852E-01
  4.684986E-01
  4.693353E-01
  4.694543E-01
  4.698148E-01
  4.693693E-01
  4.692695E-01
  4.685907E-01
  4.685104E-01
  4.680485E-01
  4.682913E-01
  4.681769E-01
  4.687419E-01
  4.689022E-01
  4.696767E-01
  4.699468E-01
  4.706777E-01
  4.706974E-01
  4.709516E-01
  4.703105E-01
  4.698289E-01
  4.685297E-01
  4.676190E-01
  4.662208E-01
  4.655589E-01
  4.646880E-01
  4.647023E-01
  4.645117E-01
  4.650947E-01
  4.653011E-01
  4.661057E-01
  4.663889E-01
  4.671597E-01
  4.673142E-01
  4.678550E-01
  4.676663E-01
  4.677597E-01
  4.670698E-01
  4.667021E-01
  4.657095E-01
  4.653034E-01
  4.645902E-01
  4.647558E-01
  4.647973E-01
  4.657307E-01
  4.663692E-01
  4.675861E-01
  4.681402E-01
  4.689609E-01
  4.689601E-01
  4.692673E-01
  4.689689E-01
  4.692759E-01
  4.692278E-01
  4.698751E-01
  4.700468E-01
  4.706236E-01
  4.703842E-01
  4.703095E-01
  4.693965E-01
  4.688762E-01
  4.679236E-01
  4.678001E-01
  4.675478E-01
  4.695249E-01
  4.702128E-01
  4.699045E-01
  4.701190E-01
  4.692318E-01
  4.689672E-01
  4.678642E-01
  4.677111E-01
  4.669980E-01
  4.673845E-01
  4.672130E-01
  4.680340E-01
  4.681489E-01
  4.691256E-01
  4.693043E-01
  4.702728E-01
  4.703521E-01
  4.710832E-01
  4.707488E-01
  4.709000E-01
  4.698989E-01
  4.694341E-01
  4.680222E-01
  4.674697E-01
  4.663301E-01
  4.663489E-01
  4.659381E-01
  4.666647E-01
  4.667791E-01
  4.677491E-01
  4.678105E-01
  4.684946E-01
  4.681487E-01
  4.684220E-01
  4.677493E-01
  4.678168E-01
  4.670484E-01
  4.670942E-01
  4.663457E-01
  4.664449E-01
  4.658035E-01
  4.660953E-01
  4.657476E-01
  4.664106E-01
  4.664432E-01
  4.674021E-01
  4.675643E-01
  4.684545E-01
  4.683894E-01
  4.689959E-01
  4.687158E-01
  4.692705E-01
  4.691204E-01
  4.699153E-01
  4.699804E-01
  4.708243E-01
  4.706898E-01
  4.711061E-01
  4.704396E-01
  4.704002E-01
  4.695191E-01
  4.695836E-01
  4.690779E-01
  4.696324E-01
  4.663020E-01
  4.679485E-01
  4.675828E-01
  4.690970E-01
  4.682917E-01
  4.692499E-01
  4.679710E-01
  4.686733E-01
  4.673937E-01
  4.683019E-01
  4.673437E-01
  4.686021E-01
  4.679676E-01
  4.694976E-01
  4.690647E-01
  4.706921E-01
  4.701970E-01
  4.715453E-01
  4.705299E-01
  4.711572E-01
  4.693345E-01
  4.692342E-01
  4.669327E-01
  4.667201E-01
  4.646994E-01
  4.650893E-01
  4.638505E-01
  4.650367E-01
  4.644706E-01
  4.661273E-01
  4.658134E-01
  4.675299E-01
  4.671215E-01
  4.686152E-01
  4.678656E-01
  4.689079E-01
  4.676255E-01
  4.681202E-01
  4.663776E-01
  4.666143E-01
  4.649063E-01
  4.654991E-01
  4.644152E-01
  4.657688E-01
  4.654045E-01
  4.672614E-01
  4.670654E-01
  4.687330E-01
  4.680751E-01
  4.691771E-01
  4.680474E-01
  4.689285E-01
  4.678850E-01
  4.690888E-01
  4.684297E-01
  4.698668E-01
  4.691269E-01
  4.701293E-01
  4.687110E-01
  4.690165E-01
  4.671380E-01
  4.674028E-01
  4.659385E-01
  4.669437E-01
  4.677233E-01
  4.694007E-01
  4.681994E-01
  4.695075E-01
  4.678200E-01
  4.687065E-01
  4.668140E-01
  4.677790E-01
  4.662142E-01
  4.676472E-01
  4.665612E-01
  4.683864E-01
  4.675683E-01
  4.695516E-01
  4.688129E-01
  4.708070E-01
  4.699807E-01
  4.717331E-01
  4.704683E-01
  4.715972E-01
  4.696123E-01
  4.700763E-01
  4.676513E-01
  4.680287E-01
  4.659098E-01
  4.669183E-01
  4.656009E-01
  4.673877E-01
  4.666509E-01
  4.687133E-01
  4.679294E-01
  4.696863E-01
  4.684536E-01
  4.697419E-01
  4.681160E-01
  4.691341E-01
  4.673630E-01
  4.683355E-01
  4.665912E-01
  4.676511E-01
  4.660603E-01
  4.673492E-01
  4.660553E-01
  4.676701E-01
  4.666622E-01
  4.684457E-01
  4.674363E-01
  4.690483E-01
  4.677605E-01
  4.690966E-01
  4.676495E-01
  4.690140E-01
  4.677766E-01
  4.694438E-01
  4.684637E-01
  4.702089E-01
  4.690564E-01
  4.704058E-01
  4.687548E-01
  4.696742E-01
  4.678165E-01
  4.688279E-01
  4.673241E-01
  4.688129E-01
  4.647831E-01
  4.669920E-01
  4.661203E-01
  4.683499E-01
  4.671877E-01
  4.689635E-01
  4.673550E-01
  4.688227E-01
  4.671006E-01
  4.686352E-01
  4.671059E-01
  4.689004E-01
  4.676560E-01
  4.697319E-01
  4.687322E-01
  4.709611E-01
  4.699472E-01
  4.719234E-01
  4.703892E-01
  4.716228E-01
  4.692507E-01
  4.697322E-01
  4.668752E-01
  4.672616E-01
  4.647218E-01
  4.657554E-01
  4.640367E-01
  4.658895E-01
  4.648460E-01
  4.671533E-01
  4.663341E-01
  4.686681E-01
  4.677202E-01
  4.697984E-01
  4.684788E-01
  4.700800E-01
  4.682123E-01
  4.692666E-01
  4.669578E-01
  4.677872E-01
  4.655463E-01
  4.667459E-01
  4.651055E-01
  4.669950E-01
  4.659616E-01
  4.682210E-01
  4.672325E-01
  4.692189E-01
  4.677417E-01
  4.691912E-01
  4.673079E-01
  4.686119E-01
  4.668767E-01
  4.685424E-01
  4.672140E-01
  4.691352E-01
  4.677634E-01
  4.693063E-01
  4.673195E-01
  4.682139E-01
  4.657800E-01
  4.666056E-01
  4.645309E-01
  4.660461E-01
  4.666113E-01
  4.684321E-01
  4.671036E-01
  4.687479E-01
  4.671249E-01
  4.684812E-01
  4.666882E-01
  4.680501E-01
  4.664268E-01
  4.680599E-01
  4.667318E-01
  4.686282E-01
  4.675147E-01
  4.695880E-01
  4.686231E-01
  4.707966E-01
  4.698261E-01
  4.718143E-01
  4.704308E-01
  4.717975E-01
  4.696868E-01
  4.703872E-01
  4.678500E-01
  4.684923E-01
  4.662956E-01
  4.675952E-01
  4.662050E-01
  4.682605E-01
  4.674042E-01
  4.696754E-01
  4.687124E-01
  4.706301E-01
  4.691871E-01
  4.706209E-01
  4.687817E-01
  4.699513E-01
  4.679815E-01
  4.691304E-01
  4.672224E-01
  4.684983E-01
  4.667753E-01
  4.682868E-01
  4.668282E-01
  4.685892E-01
  4.673066E-01
  4.691168E-01
  4.677340E-01
  4.693206E-01
  4.676643E-01
  4.690273E-01
  4.672863E-01
  4.687448E-01
  4.672517E-01
  4.690187E-01
  4.677711E-01
  4.696113E-01
  4.682136E-01
  4.697107E-01
  4.678812E-01
  4.689999E-01
  4.669733E-01
  4.681425E-01
  4.663938E-01
  4.679686E-01
  4.641151E-01
  4.661361E-01
  4.654331E-01
  4.676813E-01
  4.668953E-01
  4.688342E-01
  4.676369E-01
  4.691808E-01
  4.676859E-01
  4.690681E-01
  4.675540E-01
  4.690498E-01
  4.677643E-01
  4.695712E-01
  4.686200E-01
  4.706938E-01
  4.698343E-01
  4.717331E-01
  4.703983E-01
  4.715753E-01
  4.694136E-01
  4.698529E-01
  4.672301E-01
  4.676034E-01
  4.653208E-01
  4.663441E-01
  4.648549E-01
  4.666383E-01
  4.657429E-01
  4.678932E-01
  4.671453E-01
  4.692690E-01
  4.683672E-01
  4.702348E-01
  4.689789E-01
  4.703989E-01
  4.686327E-01
  4.695508E-01
  4.673941E-01
  4.681364E-01
  4.660830E-01
  4.672024E-01
  4.657166E-01
  4.674532E-01
  4.664758E-01
  4.684842E-01
  4.674838E-01
  4.692030E-01
  4.677531E-01
  4.690132E-01
  4.672427E-01
  4.684177E-01
  4.668102E-01
  4.683172E-01
  4.670638E-01
  4.687826E-01
  4.674767E-01
  4.688489E-01
  4.669838E-01
  4.677554E-01
  4.654520E-01
  4.661113E-01
  4.640864E-01
  4.653567E-01
  4.663593E-01
  4.677895E-01
  4.668030E-01
  4.682391E-01
  4.671464E-01
  4.684270E-01
  4.671942E-01
  4.683932E-01
  4.671493E-01
  4.683967E-01
  4.672441E-01
  4.686192E-01
  4.676374E-01
  4.692318E-01
  4.684999E-01
  4.703181E-01
  4.696940E-01
  4.714115E-01
  4.704273E-01
  4.715529E-01
  4.698607E-01
  4.703388E-01
  4.682409E-01
  4.686776E-01
  4.669216E-01
  4.679915E-01
  4.669876E-01
  4.687329E-01
  4.681692E-01
  4.700399E-01
  4.692986E-01
  4.707740E-01
  4.695414E-01
  4.705469E-01
  4.689497E-01
  4.697340E-01
  4.680571E-01
  4.688785E-01
  4.673249E-01
  4.683302E-01
  4.670008E-01
  4.682488E-01
  4.671499E-01
  4.685760E-01
  4.675623E-01
  4.689564E-01
  4.678004E-01
  4.689862E-01
  4.676279E-01
  4.686941E-01
  4.673511E-01
  4.685722E-01
  4.674752E-01
  4.689453E-01
  4.680033E-01
  4.694631E-01
  4.683269E-01
  4.694510E-01
  4.679281E-01
  4.687241E-01
  4.670245E-01
  4.678424E-01
  4.663509E-01
  4.674975E-01
  4.642249E-01
  4.657728E-01
  4.654668E-01
  4.673608E-01
  4.671070E-01
  4.687918E-01
  4.681497E-01
  4.693697E-01
  4.682854E-01
  4.691668E-01
  4.679054E-01
  4.688038E-01
  4.677542E-01
  4.690193E-01
  4.684059E-01
  4.700534E-01
  4.696339E-01
  4.711813E-01
  4.703336E-01
  4.711868E-01
  4.695296E-01
  4.696574E-01
  4.675452E-01
  4.676005E-01
  4.658020E-01
  4.664569E-01
  4.653802E-01
  4.667118E-01
  4.661475E-01
  4.677802E-01
  4.673226E-01
  4.689155E-01
  4.683144E-01
  4.696782E-01
  4.687601E-01
  4.697205E-01
  4.683441E-01
  4.688632E-01
  4.671616E-01
  4.675647E-01
  4.660054E-01
  4.667880E-01
  4.657544E-01
  4.670748E-01
  4.664551E-01
  4.679701E-01
  4.672988E-01
  4.685617E-01
  4.675381E-01
  4.684709E-01
  4.672449E-01
  4.681593E-01
  4.670888E-01
  4.682576E-01
  4.674238E-01
  4.686907E-01
  4.677338E-01
  4.686457E-01
  4.671744E-01
  4.675520E-01
  4.656906E-01
  4.659578E-01
  4.643273E-01
  4.651318E-01
  4.667848E-01
  4.677306E-01
  4.671193E-01
  4.680966E-01
  4.674370E-01
  4.683137E-01
  4.675325E-01
  4.682928E-01
  4.674202E-01
  4.681305E-01
  4.672675E-01
  4.680690E-01
  4.673957E-01
  4.684821E-01
  4.681490E-01
  4.695497E-01
  4.693983E-01
  4.707493E-01
  4.702691E-01
  4.710467E-01
  4.698686E-01
  4.700000E-01
  4.684033E-01
  4.684602E-01
  4.671505E-01
  4.677683E-01
  4.671322E-01
  4.683553E-01
  4.681101E-01
  4.694373E-01
  4.690207E-01
  4.699783E-01
  4.691049E-01
  4.696275E-01
  4.684218E-01
  4.687565E-01
  4.675119E-01
  4.679365E-01
  4.668771E-01
  4.675433E-01
  4.667422E-01
  4.676434E-01
  4.670154E-01
  4.679969E-01
  4.673430E-01
  4.682051E-01
  4.673796E-01
  4.680803E-01
  4.671680E-01
  4.679003E-01
  4.671426E-01
  4.681122E-01
  4.675999E-01
  4.687381E-01
  4.682523E-01
  4.692520E-01
  4.684900E-01
  4.691439E-01
  4.680530E-01
  4.684736E-01
  4.672937E-01
  4.677774E-01
  4.667832E-01
  4.675206E-01
  4.649425E-01
  4.660007E-01
  4.660280E-01
  4.673538E-01
  4.674065E-01
  4.685314E-01
  4.682154E-01
  4.688882E-01
  4.681309E-01
  4.684624E-01
  4.675367E-01
  4.679164E-01
  4.672569E-01
  4.680714E-01
  4.679149E-01
  4.691648E-01
  4.692367E-01
  4.704063E-01
  4.700626E-01
  4.705483E-01
  4.694018E-01
  4.691574E-01
  4.675294E-01
  4.671586E-01
  4.657668E-01
  4.659081E-01
  4.651604E-01
  4.659293E-01
  4.656843E-01
  4.667833E-01
  4.667005E-01
  4.678228E-01
  4.676500E-01
  4.685777E-01
  4.681054E-01
  4.686417E-01
  4.677318E-01
  4.678652E-01
  4.666838E-01
  4.667542E-01
  4.657428E-01
  4.661727E-01
  4.656105E-01
  4.664562E-01
  4.661718E-01
  4.671045E-01
  4.667277E-01
  4.674545E-01
  4.668507E-01
  4.674162E-01
  4.667711E-01
  4.674223E-01
  4.669500E-01
  4.677875E-01
  4.674299E-01
  4.682404E-01
  4.676816E-01
  4.681371E-01
  4.671428E-01
  4.671911E-01
  4.659332E-01
  4.659485E-01
  4.649191E-01
  4.653879E-01
  4.677828E-01
  4.681883E-01
  4.678942E-01
  4.681616E-01
  4.677203E-01
  4.678592E-01
  4.673242E-01
  4.674106E-01
  4.668668E-01
  4.669941E-01
  4.665535E-01
  4.668625E-01
  4.666916E-01
  4.673459E-01
  4.675495E-01
  4.685272E-01
  4.689054E-01
  4.698241E-01
  4.698735E-01
  4.702310E-01
  4.695986E-01
  4.693132E-01
  4.682364E-01
  4.678151E-01
  4.669360E-01
  4.669795E-01
  4.666984E-01
  4.673151E-01
  4.674463E-01
  4.682344E-01
  4.682851E-01
  4.687907E-01
  4.684453E-01
  4.685407E-01
  4.678592E-01
  4.677530E-01
  4.670311E-01
  4.670388E-01
  4.665484E-01
  4.668473E-01
  4.666388E-01
  4.671436E-01
  4.670151E-01
  4.674558E-01
  4.671404E-01
  4.673309E-01
  4.667865E-01
  4.668537E-01
  4.663492E-01
  4.666276E-01
  4.664570E-01
  4.670999E-01
  4.672173E-01
  4.679854E-01
  4.680295E-01
  4.685523E-01
  4.682578E-01
  4.684502E-01
  4.679234E-01
  4.680316E-01
  4.675662E-01
  4.678351E-01
  4.675603E-01
  4.679833E-01
  4.661933E-01
  4.666028E-01
  4.669722E-01
  4.674237E-01
  4.676769E-01
  4.678822E-01
  4.678093E-01
  4.676716E-01
  4.673059E-01
  4.669895E-01
  4.666099E-01
  4.664696E-01
  4.664445E-01
  4.667806E-01
  4.672560E-01
  4.679946E-01
  4.686568E-01
  4.692875E-01
  4.695353E-01
  4.695120E-01
  4.689997E-01
  4.682765E-01
  4.672768E-01
  4.663751E-01
  4.655223E-01
  4.650319E-01
  4.647443E-01
  4.648518E-01
  4.650966E-01
  4.656128E-01
  4.661201E-01
  4.667491E-01
  4.672196E-01
  4.676626E-01
  4.678086E-01
  4.678260E-01
  4.675175E-01
  4.671480E-01
  4.666133E-01
  4.662326E-01
  4.658931E-01
  4.658407E-01
  4.658496E-01
  4.660553E-01
  4.661642E-01
  4.663083E-01
  4.662509E-01
  4.662144E-01
  4.660496E-01
  4.660318E-01
  4.660142E-01
  4.662279E-01
  4.664528E-01
  4.668421E-01
  4.671156E-01
  4.674006E-01
  4.674323E-01
  4.673903E-01
  4.670872E-01
  4.667860E-01
  4.663666E-01
  4.661247E-01
  4.659287E-01
  4.660217E-01
  4.692144E-01
  4.688395E-01
  4.689321E-01
  4.681857E-01
  4.679859E-01
  4.670712E-01
  4.668383E-01
  4.660100E-01
  4.659536E-01
  4.653637E-01
  4.655890E-01
  4.653156E-01
  4.658867E-01
  4.659726E-01
  4.668810E-01
  4.672256E-01
  4.682469E-01
  4.685028E-01
  4.692138E-01
  4.689719E-01
  4.690865E-01
  4.682751E-01
  4.679760E-01
  4.670009E-01
  4.668198E-01
  4.662055E-01
  4.665307E-01
  4.664410E-01
  4.671868E-01
  4.673253E-01
  4.680696E-01
  4.679945E-01
  4.683767E-01
  4.678835E-01
  4.678922E-01
  4.671565E-01
  4.671072E-01
  4.665056E-01
  4.667408E-01
  4.664915E-01
  4.670424E-01
  4.669741E-01
  4.675082E-01
  4.672191E-01
  4.673859E-01
  4.666912E-01
  4.665433E-01
  4.657351E-01
  4.657296E-01
  4.652982E-01
  4.658094E-01
  4.658958E-01
  4.667870E-01
  4.670226E-01
  4.678148E-01
  4.677647E-01
  4.682011E-01
  4.678530E-01
  4.681432E-01
  4.678294E-01
  4.682926E-01
  4.681981E-01
  4.688208E-01
  4.687448E-01
  4.676764E-01
  4.672183E-01
  4.679916E-01
  4.673847E-01
  4.679326E-01
  4.670663E-01
  4.673658E-01
  4.663035E-01
  4.664952E-01
  4.654428E-01
  4.657813E-01
  4.650144E-01
  4.657526E-01
  4.654448E-01
  4.666200E-01
  4.666338E-01
  4.679327E-01
  4.678236E-01
  4.687567E-01
  4.680994E-01
  4.684075E-01
  4.671743E-01
  4.670704E-01
  4.656636E-01
  4.656431E-01
  4.645405E-01
  4.649713E-01
  4.643802E-01
  4.653037E-01
  4.651269E-01
  4.663446E-01
  4.663121E-01
  4.675034E-01
  4.672679E-01
  4.681012E-01
  4.674121E-01
  4.677904E-01
  4.667525E-01
  4.669733E-01
  4.659986E-01
  4.664608E-01
  4.658029E-01
  4.665322E-01
  4.659924E-01
  4.666557E-01
  4.659061E-01
  4.663132E-01
  4.653753E-01
  4.657493E-01
  4.649635E-01
  4.656414E-01
  4.652299E-01
  4.662531E-01
  4.660718E-01
  4.671598E-01
  4.668739E-01
  4.677268E-01
  4.671437E-01
  4.677164E-01
  4.669389E-01
  4.674437E-01
  4.667276E-01
  4.673878E-01
  4.668606E-01
  4.705726E-01
  4.693609E-01
  4.697964E-01
  4.681064E-01
  4.682076E-01
  4.663772E-01
  4.665347E-01
  4.649220E-01
  4.654040E-01
  4.641676E-01
  4.650361E-01
  4.641725E-01
  4.653883E-01
  4.648370E-01
  4.663131E-01
  4.659422E-01
  4.674843E-01
  4.670365E-01
  4.683516E-01
  4.675516E-01
  4.684485E-01
  4.672476E-01
  4.678480E-01
  4.665215E-01
  4.671951E-01
  4.661206E-01
  4.671611E-01
  4.664776E-01
  4.678366E-01
  4.673193E-01
  4.686480E-01
  4.679057E-01
  4.688634E-01
  4.676907E-01
  4.682645E-01
  4.668541E-01
  4.674027E-01
  4.661911E-01
  4.671109E-01
  4.663373E-01
  4.676294E-01
  4.670409E-01
  4.682588E-01
  4.673405E-01
  4.680565E-01
  4.666070E-01
  4.669231E-01
  4.653341E-01
  4.658276E-01
  4.646978E-01
  4.658157E-01
  4.653135E-01
  4.669072E-01
  4.666289E-01
  4.681781E-01
  4.676546E-01
  4.688800E-01
  4.680842E-01
  4.691798E-01
  4.684175E-01
  4.696579E-01
  4.690495E-01
  4.703419E-01
  4.696056E-01
  4.687179E-01
  4.676169E-01
  4.685649E-01
  4.673163E-01
  4.680815E-01
  4.666485E-01
  4.672587E-01
  4.657249E-01
  4.663089E-01
  4.648403E-01
  4.655925E-01
  4.643946E-01
  4.654991E-01
  4.646901E-01
  4.661557E-01
  4.656091E-01
  4.671801E-01
  4.665533E-01
  4.678701E-01
  4.668659E-01
  4.677600E-01
  4.663742E-01
  4.670012E-01
  4.655069E-01
  4.661916E-01
  4.648957E-01
  4.658733E-01
  4.649127E-01
  4.662206E-01
  4.655463E-01
  4.670621E-01
  4.664844E-01
  4.679573E-01
  4.671846E-01
  4.683292E-01
  4.671547E-01
  4.679184E-01
  4.664866E-01
  4.671908E-01
  4.659096E-01
  4.669134E-01
  4.659650E-01
  4.672060E-01
  4.663083E-01
  4.673953E-01
  4.661995E-01
  4.669598E-01
  4.655334E-01
  4.662485E-01
  4.649894E-01
  4.660452E-01
  4.652142E-01
  4.666833E-01
  4.661615E-01
  4.677799E-01
  4.672329E-01
  4.686766E-01
  4.678601E-01
  4.690084E-01
  4.679367E-01
  4.689162E-01
  4.677770E-01
  4.687710E-01
  4.676845E-01
  4.711337E-01
  4.696274E-01
  4.699716E-01
  4.681001E-01
  4.682391E-01
  4.663475E-01
  4.666332E-01
  4.650063E-01
  4.656158E-01
  4.643217E-01
  4.652431E-01
  4.642303E-01
  4.654049E-01
  4.646202E-01
  4.659924E-01
  4.653585E-01
  4.668115E-01
  4.661690E-01
  4.675194E-01
  4.666969E-01
  4.678279E-01
  4.667982E-01
  4.677854E-01
  4.667119E-01
  4.677660E-01
  4.668509E-01
  4.681099E-01
  4.673856E-01
  4.687592E-01
  4.680247E-01
  4.692408E-01
  4.682131E-01
  4.690487E-01
  4.676316E-01
  4.681621E-01
  4.666098E-01
  4.672271E-01
  4.659822E-01
  4.670652E-01
  4.663306E-01
  4.678316E-01
  4.673014E-01
  4.687250E-01
  4.678452E-01
  4.687364E-01
  4.672874E-01
  4.677336E-01
  4.660920E-01
  4.666555E-01
  4.654124E-01
  4.665512E-01
  4.659145E-01
  4.675495E-01
  4.672028E-01
  4.688952E-01
  4.684166E-01
  4.698779E-01
  4.691684E-01
  4.704709E-01
  4.696949E-01
  4.709887E-01
  4.701909E-01
  4.713745E-01
  4.703306E-01
  4.687034E-01
  4.677425E-01
  4.682861E-01
  4.673881E-01
  4.679541E-01
  4.670306E-01
  4.675255E-01
  4.664988E-01
  4.668852E-01
  4.657840E-01
  4.661725E-01
  4.651804E-01
  4.657886E-01
  4.650960E-01
  4.660228E-01
  4.655947E-01
  4.666698E-01
  4.662424E-01
  4.671797E-01
  4.665219E-01
  4.672031E-01
  4.663305E-01
  4.668858E-01
  4.659932E-01
  4.666206E-01
  4.658577E-01
  4.666334E-01
  4.660082E-01
  4.668980E-01
  4.663620E-01
  4.673151E-01
  4.668055E-01
  4.677254E-01
  4.671001E-01
  4.678181E-01
  4.669359E-01
  4.674091E-01
  4.663775E-01
  4.668624E-01
  4.660195E-01
  4.668214E-01
  4.663229E-01
  4.673803E-01
  4.669613E-01
  4.678975E-01
  4.672020E-01
  4.678022E-01
  4.668216E-01
  4.672754E-01