# vtk DataFile Version 2.0
title
ASCII
DATASET STRUCTURED_GRID
DIMENSIONS   64   64    1
POINTS   4096  float
  0.000000E+00  0.000000E+00  0.000000E+00
  0.000000E+00  3.906250E-01  0.000000E+00
  0.000000E+00  7.812500E-01  0.000000E+00
  0.000000E+00  1.171875E+00  0.000000E+00
  0.000000E+00  1.562500E+00  0.000000E+00
  0.000000E+00  1.953125E+00  0.000000E+00
  0.000000E+00  2.343750E+00  0.000000E+00
  0.000000E+00  2.734375E+00  0.000000E+00
  0.000000E+00  3.125000E+00  0.000000E+00
  0.000000E+00  3.515625E+00  0.000000E+00
  0.000000E+00  3.906250E+00  0.000000E+00
  0.000000E+00  4.296875E+00  0.000000E+00
  0.000000E+00  4.687500E+00  0.000000E+00
  0.000000E+00  5.078125E+00  0.000000E+00
  0.000000E+00  5.468750E+00  0.000000E+00
  0.000000E+00  5.859375E+00  0.000000E+00
  0.000000E+00  6.250000E+00  0.000000E+00
  0.000000E+00  6.640625E+00  0.000000E+00
  0.000000E+00  7.031250E+00  0.000000E+00
  0.000000E+00  7.421875E+00  0.000000E+00
  0.000000E+00  7.812500E+00  0.000000E+00
  0.000000E+00  8.203125E+00  0.000000E+00
  0.000000E+00  8.593750E+00  0.000000E+00
  0.000000E+00  8.984375E+00  0.000000E+00
  0.000000E+00  9.375000E+00  0.000000E+00
  0.000000E+00  9.765625E+00  0.000000E+00
  0.000000E+00  1.015625E+01  0.000000E+00
  0.000000E+00  1.054688E+01  0.000000E+00
  0.000000E+00  1.093750E+01  0.000000E+00
  0.000000E+00  1.132812E+01  0.000000E+00
  0.000000E+00  1.171875E+01  0.000000E+00
  0.000000E+00  1.210938E+01  0.000000E+00
  0.000000E+00  1.250000E+01  0.000000E+00
  0.000000E+00  1.289062E+01  0.000000E+00
  0.000000E+00  1.328125E+01  0.000000E+00
  0.000000E+00  1.367188E+01  0.000000E+00
  0.000000E+00  1.406250E+01  0.000000E+00
  0.000000E+00  1.445312E+01  0.000000E+00
  0.000000E+00  1.484375E+01  0.000000E+00
  0.000000E+00  1.523438E+01  0.000000E+00
  0.000000E+00  1.562500E+01  0.000000E+00
  0.000000E+00  1.601562E+01  0.000000E+00
  0.000000E+00  1.640625E+01  0.000000E+00
  0.000000E+00  1.679688E+01  0.000000E+00
  0.000000E+00  1.718750E+01  0.000000E+00
  0.000000E+00  1.757812E+01  0.000000E+00
  0.000000E+00  1.796875E+01  0.000000E+00
  0.000000E+00  1.835938E+01  0.000000E+00
  0.000000E+00  1.875000E+01  0.000000E+00
  0.000000E+00  1.914062E+01  0.000000E+00
  0.000000E+00  1.953125E+01  0.000000E+00
  0.000000E+00  1.992188E+01  0.000000E+00
  0.000000E+00  2.031250E+01  0.000000E+00
  0.000000E+00  2.070312E+01  0.000000E+00
  0.000000E+00  2.109375E+01  0.000000E+00
  0.000000E+00  2.148438E+01  0.000000E+00
  0.000000E+00  2.187500E+01  0.000000E+00
  0.000000E+00  2.226562E+01  0.000000E+00
  0.000000E+00  2.265625E+01  0.000000E+00
  0.000000E+00  2.304688E+01  0.000000E+00
  0.000000E+00  2.343750E+01  0.000000E+00
  0.000000E+00  2.382812E+01  0.000000E+00
  0.000000E+00  2.421875E+01  0.000000E+00
  0.000000E+00  2.460938E+01  0.000000E+00
  3.906250E-01  0.000000E+00  0.000000E+00
  3.906250E-01  3.906250E-01  0.000000E+00
  3.906250E-01  7.812500E-01  0.000000E+00
  3.906250E-01  1.171875E+00  0.000000E+00
  3.906250E-01  1.562500E+00  0.000000E+00
  3.906250E-01  1.953125E+00  0.000000E+00
  3.906250E-01  2.343750E+00  0.000000E+00
  3.906250E-01  2.734375E+00  0.000000E+00
  3.906250E-01  3.125000E+00  0.000000E+00
  3.906250E-01  3.515625E+00  0.000000E+00
  3.906250E-01  3.906250E+00  0.000000E+00
  3.906250E-01  4.296875E+00  0.000000E+00
  3.906250E-01  4.687500E+00  0.000000E+00
  3.906250E-01  5.078125E+00  0.000000E+00
  3.906250E-01  5.468750E+00  0.000000E+00
  3.906250E-01  5.859375E+00  0.000000E+00
  3.906250E-01  6.250000E+00  0.000000E+00
  3.906250E-01  6.640625E+00  0.000000E+00
  3.906250E-01  7.031250E+00  0.000000E+00
  3.906250E-01  7.421875E+00  0.000000E+00
  3.906250E-01  7.812500E+00  0.000000E+00
  3.906250E-01  8.203125E+00  0.000000E+00
  3.906250E-01  8.593750E+00  0.000000E+00
  3.906250E-01  8.984375E+00  0.000000E+00
  3.906250E-01  9.375000E+00  0.000000E+00
  3.906250E-01  9.765625E+00  0.000000E+00
  3.906250E-01  1.015625E+01  0.000000E+00
  3.906250E-01  1.054688E+01  0.000000E+00
  3.906250E-01  1.093750E+01  0.000000E+00
  3.906250E-01  1.132812E+01  0.000000E+00
  3.906250E-01  1.171875E+01  0.000000E+00
  3.906250E-01  1.210938E+01  0.000000E+00
  3.906250E-01  1.250000E+01  0.000000E+00
  3.906250E-01  1.289062E+01  0.000000E+00
  3.906250E-01  1.328125E+01  0.000000E+00
  3.906250E-01  1.367188E+01  0.000000E+00
  3.906250E-01  1.406250E+01  0.000000E+00
  3.906250E-01  1.445312E+01  0.000000E+00
  3.906250E-01  1.484375E+01  0.000000E+00
  3.906250E-01  1.523438E+01  0.000000E+00
  3.906250E-01  1.562500E+01  0.000000E+00
  3.906250E-01  1.601562E+01  0.000000E+00
  3.906250E-01  1.640625E+01  0.000000E+00
  3.906250E-01  1.679688E+01  0.000000E+00
  3.906250E-01  1.718750E+01  0.000000E+00
  3.906250E-01  1.757812E+01  0.000000E+00
  3.906250E-01  1.796875E+01  0.000000E+00
  3.906250E-01  1.835938E+01  0.000000E+00
  3.906250E-01  1.875000E+01  0.000000E+00
  3.906250E-01  1.914062E+01  0.000000E+00
  3.906250E-01  1.953125E+01  0.000000E+00
  3.906250E-01  1.992188E+01  0.000000E+00
  3.906250E-01  2.031250E+01  0.000000E+00
  3.906250E-01  2.070312E+01  0.000000E+00
  3.906250E-01  2.109375E+01  0.000000E+00
  3.906250E-01  2.148438E+01  0.000000E+00
  3.906250E-01  2.187500E+01  0.000000E+00
  3.906250E-01  2.226562E+01  0.000000E+00
  3.906250E-01  2.265625E+01  0.000000E+00
  3.906250E-01  2.304688E+01  0.000000E+00
  3.906250E-01  2.343750E+01  0.000000E+00
  3.906250E-01  2.382812E+01  0.000000E+00
  3.906250E-01  2.421875E+01  0.000000E+00
  3.906250E-01  2.460938E+01  0.000000E+00
  7.812500E-01  0.000000E+00  0.000000E+00
  7.812500E-01  3.906250E-01  0.000000E+00
  7.812500E-01  7.812500E-01  0.000000E+00
  7.812500E-01  1.171875E+00  0.000000E+00
  7.812500E-01  1.562500E+00  0.000000E+00
  7.812500E-01  1.953125E+00  0.000000E+00
  7.812500E-01  2.343750E+00  0.000000E+00
  7.812500E-01  2.734375E+00  0.000000E+00
  7.812500E-01  3.125000E+00  0.000000E+00
  7.812500E-01  3.515625E+00  0.000000E+00
  7.812500E-01  3.906250E+00  0.000000E+00
  7.812500E-01  4.296875E+00  0.000000E+00
  7.812500E-01  4.687500E+00  0.000000E+00
  7.812500E-01  5.078125E+00  0.000000E+00
  7.812500E-01  5.468750E+00  0.000000E+00
  7.812500E-01  5.859375E+00  0.000000E+00
  7.812500E-01  6.250000E+00  0.000000E+00
  7.812500E-01  6.640625E+00  0.000000E+00
  7.812500E-01  7.031250E+00  0.000000E+00
  7.812500E-01  7.421875E+00  0.000000E+00
  7.812500E-01  7.812500E+00  0.000000E+00
  7.812500E-01  8.203125E+00  0.000000E+00
  7.812500E-01  8.593750E+00  0.000000E+00
  7.812500E-01  8.984375E+00  0.000000E+00
  7.812500E-01  9.375000E+00  0.000000E+00
  7.812500E-01  9.765625E+00  0.000000E+00
  7.812500E-01  1.015625E+01  0.000000E+00
  7.812500E-01  1.054688E+01  0.000000E+00
  7.812500E-01  1.093750E+01  0.000000E+00
  7.812500E-01  1.132812E+01  0.000000E+00
  7.812500E-01  1.171875E+01  0.000000E+00
  7.812500E-01  1.210938E+01  0.000000E+00
  7.812500E-01  1.250000E+01  0.000000E+00
  7.812500E-01  1.289062E+01  0.000000E+00
  7.812500E-01  1.328125E+01  0.000000E+00
  7.812500E-01  1.367188E+01  0.000000E+00
  7.812500E-01  1.406250E+01  0.000000E+00
  7.812500E-01  1.445312E+01  0.000000E+00
  7.812500E-01  1.484375E+01  0.000000E+00
  7.812500E-01  1.523438E+01  0.000000E+00
  7.812500E-01  1.562500E+01  0.000000E+00
  7.812500E-01  1.601562E+01  0.000000E+00
  7.812500E-01  1.640625E+01  0.000000E+00
  7.812500E-01  1.679688E+01  0.000000E+00
  7.812500E-01  1.718750E+01  0.000000E+00
  7.812500E-01  1.757812E+01  0.000000E+00
  7.812500E-01  1.796875E+01  0.000000E+00
  7.812500E-01  1.835938E+01  0.000000E+00
  7.812500E-01  1.875000E+01  0.000000E+00
  7.812500E-01  1.914062E+01  0.000000E+00
  7.812500E-01  1.953125E+01  0.000000E+00
  7.812500E-01  1.992188E+01  0.000000E+00
  7.812500E-01  2.031250E+01  0.000000E+00
  7.812500E-01  2.070312E+01  0.000000E+00
  7.812500E-01  2.109375E+01  0.000000E+00
  7.812500E-01  2.148438E+01  0.000000E+00
  7.812500E-01  2.187500E+01  0.000000E+00
  7.812500E-01  2.226562E+01  0.000000E+00
  7.812500E-01  2.265625E+01  0.000000E+00
  7.812500E-01  2.304688E+01  0.000000E+00
  7.812500E-01  2.343750E+01  0.000000E+00
  7.812500E-01  2.382812E+01  0.000000E+00
  7.812500E-01  2.421875E+01  0.000000E+00
  7.812500E-01  2.460938E+01  0.000000E+00
  1.171875E+00  0.000000E+00  0.000000E+00
  1.171875E+00  3.906250E-01  0.000000E+00
  1.171875E+00  7.812500E-01  0.000000E+00
  1.171875E+00  1.171875E+00  0.000000E+00
  1.171875E+00  1.562500E+00  0.000000E+00
  1.171875E+00  1.953125E+00  0.000000E+00
  1.171875E+00  2.343750E+00  0.000000E+00
  1.171875E+00  2.734375E+00  0.000000E+00
  1.171875E+00  3.125000E+00  0.000000E+00
  1.171875E+00  3.515625E+00  0.000000E+00
  1.171875E+00  3.906250E+00  0.000000E+00
  1.171875E+00  4.296875E+00  0.000000E+00
  1.171875E+00  4.687500E+00  0.000000E+00
  1.171875E+00  5.078125E+00  0.000000E+00
  1.171875E+00  5.468750E+00  0.000000E+00
  1.171875E+00  5.859375E+00  0.000000E+00
  1.171875E+00  6.250000E+00  0.000000E+00
  1.171875E+00  6.640625E+00  0.000000E+00
  1.171875E+00  7.031250E+00  0.000000E+00
  1.171875E+00  7.421875E+00  0.000000E+00
  1.171875E+00  7.812500E+00  0.000000E+00
  1.171875E+00  8.203125E+00  0.000000E+00
  1.171875E+00  8.593750E+00  0.000000E+00
  1.171875E+00  8.984375E+00  0.000000E+00
  1.171875E+00  9.375000E+00  0.000000E+00
  1.171875E+00  9.765625E+00  0.000000E+00
  1.171875E+00  1.015625E+01  0.000000E+00
  1.171875E+00  1.054688E+01  0.000000E+00
  1.171875E+00  1.093750E+01  0.000000E+00
  1.171875E+00  1.132812E+01  0.000000E+00
  1.171875E+00  1.171875E+01  0.000000E+00
  1.171875E+00  1.210938E+01  0.000000E+00
  1.171875E+00  1.250000E+01  0.000000E+00
  1.171875E+00  1.289062E+01  0.000000E+00
  1.171875E+00  1.328125E+01  0.000000E+00
  1.171875E+00  1.367188E+01  0.000000E+00
  1.171875E+00  1.406250E+01  0.000000E+00
  1.171875E+00  1.445312E+01  0.000000E+00
[...]
POINT_DATA   4096
SCALARS CON  float  1
LOOKUP_TABLE default
  4.694962E-01
  4.686891E-01
  4.714383E-01
  4.699104E-01
  4.716164E-01
  4.692099E-01
  4.705169E-01
  4.682102E-01
  4.698896E-01
  4.679345E-01
  4.697698E-01
  4.678030E-01
  4.696332E-01
  4.678407E-01
  4.700625E-01
  4.687435E-01
  4.712840E-01
  4.699199E-01
  4.719771E-01
  4.697842E-01
  4.708833E-01
  4.678601E-01
  4.684735E-01
  4.654285E-01
  4.664782E-01
  4.641958E-01
  4.661090E-01
  4.645443E-01
  4.668550E-01
  4.653400E-01
  4.674809E-01
  4.657845E-01
  4.678973E-01
  4.663484E-01
  4.686522E-01
  4.671363E-01
  4.691713E-01
  4.670897E-01
  4.684184E-01
  4.657213E-01
  4.667304E-01
  4.641205E-01
  4.656276E-01
  4.638446E-01
  4.663592E-01
  4.655574E-01
  4.687761E-01
  4.681633E-01
  4.709333E-01
  4.693287E-01
  4.709022E-01
  4.683758E-01
  4.697119E-01
  4.677522E-01
  4.701899E-01
  4.693075E-01
  4.722126E-01
  4.708736E-01
  4.725284E-01
  4.696702E-01
  4.702081E-01
  4.671315E-01
  4.684374E-01
  4.667644E-01
  4.713961E-01
  4.710064E-01
  4.725688E-01
  4.711266E-01
  4.714463E-01
  4.690785E-01
  4.691430E-01
  4.672369E-01
  4.682180E-01
  4.672610E-01
  4.688621E-01
  4.680655E-01
  4.694978E-01
  4.684800E-01
  4.698767E-01
  4.690643E-01
  4.707581E-01
  4.700808E-01
  4.715445E-01
  4.702398E-01
  4.708387E-01
  4.687067E-01
  4.687826E-01
  4.665877E-01
  4.670652E-01
  4.656097E-01
  4.669609E-01
  4.662917E-01
  4.681519E-01
  4.675986E-01
  4.691737E-01
  4.680459E-01
  4.689609E-01
  4.673125E-01
  4.680013E-01
  4.664389E-01
  4.674023E-01
  4.661044E-01
  4.671543E-01
  4.657176E-01
  4.665046E-01
  4.648818E-01
  4.657602E-01
  4.646043E-01
  4.662600E-01
  4.659712E-01
  4.682840E-01
  4.681861E-01
  4.701337E-01
  4.692594E-01
  4.703654E-01
  4.689868E-01
  4.701860E-01
  4.694627E-01
  4.715368E-01
  4.714151E-01
  4.734253E-01
  4.724939E-01
  4.732338E-01
  4.710886E-01
  4.711750E-01
  4.691956E-01
  4.701720E-01
  4.694076E-01
  4.678980E-01
  4.690206E-01
  4.704501E-01
  4.706875E-01
  4.707312E-01
  4.697133E-01
  4.691134E-01
  4.681961E-01
  4.682205E-01
  4.680494E-01
  4.685955E-01
  4.685965E-01
  4.690762E-01
  4.689973E-01
  4.695542E-01
  4.697150E-01
  4.705161E-01
  4.707028E-01
  4.711530E-01
  4.706064E-01
  4.700973E-01
  4.686236E-01
  4.674846E-01
  4.658597E-01
  4.650887E-01
  4.642397E-01
  4.644279E-01
  4.644614E-01
  4.652541E-01
  4.655426E-01
  4.663110E-01
  4.664511E-01
  4.670897E-01
  4.671656E-01
  4.677373E-01
  4.676148E-01
  4.677631E-01
  4.670103E-01
  4.664636E-01
  4.651658E-01
  4.644257E-01
  4.634003E-01
  4.633912E-01
  4.634306E-01
  4.646033E-01
  4.656716E-01
  4.674518E-01
  4.685151E-01
  4.696515E-01
  4.696271E-01
  4.696237E-01
  4.688666E-01
  4.688634E-01
  4.688518E-01
  4.699867E-01
  4.709170E-01
  4.722394E-01
  4.723562E-01
  4.720777E-01
  4.704109E-01
  4.689009E-01
  4.670868E-01
  4.665974E-01
  4.665643E-01
  4.693682E-01
  4.709135E-01
  4.709139E-01
  4.712849E-01
  4.698161E-01
  4.690131E-01
  4.671318E-01
  4.668137E-01
  4.660674E-01
  4.670360E-01
  4.672311E-01
  4.685353E-01
  4.685310E-01
  4.694158E-01
  4.691205E-01
  4.700194E-01
  4.699616E-01
  4.710525E-01
  4.708609E-01
  4.713708E-01
  4.702609E-01
  4.697997E-01
  4.679870E-01
  4.673111E-01
  4.658194E-01
  4.658881E-01
  4.653547E-01
  4.663580E-01
  4.665241E-01
  4.678438E-01
  4.678908E-01
  4.687223E-01
  4.680901E-01
  4.682858E-01
  4.672594E-01
  4.673764E-01
  4.665064E-01
  4.668336E-01
  4.660557E-01
  4.662998E-01
  4.653574E-01
  4.655452E-01
  4.648264E-01
  4.655640E-01
  4.655993E-01
  4.670469E-01
  4.674786E-01
  4.688414E-01
  4.687285E-01
  4.693105E-01
  4.685288E-01
  4.688784E-01
  4.684417E-01
  4.695770E-01
  4.699885E-01
  4.715798E-01
  4.717445E-01
  4.723840E-01
  4.712169E-01
  4.706589E-01
  4.689075E-01
  4.686161E-01
  4.678793E-01
  4.689475E-01
  4.657883E-01
  4.684995E-01
  4.684139E-01
  4.702450E-01
  4.687443E-01
  4.692545E-01
  4.670499E-01
  4.676646E-01
  4.661868E-01
  4.677296E-01
  4.669653E-01
  4.688004E-01
  4.679715E-01
  4.696257E-01
  4.687377E-01
  4.705359E-01
  4.698749E-01
  4.717393E-01
  4.707617E-01
  4.718575E-01
  4.697931E-01
  4.697729E-01
  4.668926E-01
  4.665994E-01
  4.640594E-01
  4.646020E-01
  4.631409E-01
  4.647169E-01
  4.640221E-01
  4.660093E-01
  4.654205E-01
  4.673388E-01
  4.666300E-01
  4.684243E-01
  4.675415E-01
  4.690195E-01
  4.676186E-01
  4.684156E-01
  4.663210E-01
  4.666241E-01
  4.644247E-01
  4.650994E-01
  4.636935E-01
  4.653995E-01
  4.650030E-01
  4.674320E-01
  4.672738E-01
  4.693827E-01
  4.684328E-01
  4.695246E-01
  4.676819E-01
  4.683457E-01
  4.667302E-01
  4.682077E-01
  4.676525E-01
  4.699413E-01
  4.695075E-01
  4.710541E-01
  4.692179E-01
  4.692259E-01
  4.663479E-01
  4.662777E-01
  4.643706E-01
  4.659709E-01
  4.675087E-01
  4.700130E-01
  4.688557E-01
  4.703819E-01
  4.679649E-01
  4.684479E-01
  4.656379E-01
  4.665448E-01
  4.647903E-01
  4.669375E-01
  4.661241E-01
  4.686320E-01
  4.676413E-01
  4.697378E-01
  4.684626E-01
  4.705967E-01
  4.696000E-01
  4.719559E-01
  4.708000E-01
  4.724660E-01
  4.702116E-01
  4.707091E-01
  4.676076E-01
  4.678499E-01
  4.651388E-01
  4.662680E-01
  4.646756E-01
  4.668750E-01
  4.660774E-01
  4.686555E-01
  4.677809E-01
  4.698965E-01
  4.683448E-01
  4.697937E-01
  4.677832E-01
  4.690679E-01
  4.671303E-01
  4.685690E-01
  4.667155E-01
  4.681192E-01
  4.661917E-01
  4.676320E-01
  4.659617E-01
  4.678641E-01
  4.667091E-01
  4.689618E-01
  4.678161E-01
  4.696947E-01
  4.679129E-01
  4.691382E-01
  4.669603E-01
  4.682351E-01
  4.665645E-01
  4.686161E-01
  4.676672E-01
  4.700596E-01
  4.688906E-01
  4.705561E-01
  4.684246E-01
  4.692673E-01
  4.667788E-01
  4.678800E-01
  4.661828E-01
  4.683207E-01
  4.643635E-01
  4.672972E-01
  4.666193E-01
  4.690782E-01
  4.674196E-01
  4.688532E-01
  4.665538E-01
  4.679333E-01
  4.660732E-01
  4.680848E-01
  4.667276E-01
  4.689446E-01
  4.675487E-01
  4.696866E-01
  4.683684E-01
  4.707859E-01
  4.697948E-01
  4.723103E-01
  4.709447E-01
  4.725501E-01
  4.699148E-01
  4.702491E-01
  4.667379E-01
  4.668654E-01
  4.638639E-01
  4.650331E-01
  4.632756E-01
  4.655528E-01
  4.645439E-01
  4.671601E-01
  4.661812E-01
  4.686829E-01
  4.675713E-01
  4.699468E-01
  4.686417E-01
  4.706500E-01
  4.687545E-01
  4.700179E-01
  4.674076E-01
  4.682186E-01
  4.655967E-01
  4.668780E-01
  4.650866E-01
  4.673154E-01
  4.663106E-01
  4.689445E-01
  4.678625E-01
  4.699747E-01
  4.680862E-01
  4.693463E-01
  4.668201E-01
  4.678672E-01
  4.656393E-01
  4.674084E-01
  4.660670E-01
  4.685322E-01
  4.673796E-01
  4.693874E-01
  4.672527E-01
  4.681115E-01
  4.651237E-01
  4.658036E-01
  4.634373E-01
  4.653445E-01
  4.665213E-01
  4.686163E-01
  4.674512E-01
  4.691419E-01
  4.673089E-01
  4.683515E-01
  4.661931E-01
  4.674002E-01
  4.658291E-01
  4.677724E-01
  4.667570E-01
  4.688777E-01
  4.677052E-01
  4.695804E-01
  4.683526E-01
  4.704811E-01
  4.696774E-01
  4.720732E-01
  4.710555E-01
  4.726377E-01
  4.703880E-01
  4.707285E-01
  4.676712E-01
  4.679156E-01
  4.654795E-01
  4.668266E-01
  4.656236E-01
  4.680095E-01
  4.674425E-01
  4.699908E-01
  4.691581E-01
  4.711408E-01
  4.696205E-01
  4.709802E-01
  4.690424E-01
  4.702362E-01
  4.683232E-01
  4.696088E-01
  4.677499E-01
  4.690335E-01
  4.671909E-01
  4.686141E-01
  4.670806E-01
  4.689167E-01
  4.677418E-01
  4.697116E-01
  4.683547E-01
  4.698677E-01
  4.679396E-01
  4.689819E-01
  4.668681E-01
  4.680905E-01
  4.664647E-01
  4.683038E-01
  4.671894E-01
  4.692391E-01
  4.679573E-01
  4.695313E-01
  4.676472E-01
  4.687077E-01
  4.665691E-01
  4.677118E-01
  4.659645E-01
  4.676873E-01
  4.637051E-01
  4.658599E-01
  4.655888E-01
  4.679172E-01
  4.673111E-01
  4.690315E-01
  4.678312E-01
  4.691703E-01
  4.678375E-01
  4.691908E-01
  4.678821E-01
  4.692078E-01
  4.678797E-01
  4.693260E-01
  4.683498E-01
  4.703271E-01
  4.698442E-01
  4.719804E-01
  4.710957E-01
  4.722508E-01
  4.700412E-01
  4.699413E-01
  4.669724E-01
  4.668689E-01
  4.646384E-01
  4.657413E-01
  4.647766E-01
  4.668369E-01
  4.663363E-01
  4.684107E-01
  4.676805E-01
  4.695159E-01
  4.686694E-01
  4.704817E-01
  4.695525E-01
  4.710558E-01
  4.695280E-01
  4.702440E-01
  4.679767E-01
  4.682698E-01
  4.660733E-01
  4.669328E-01
  4.656231E-01
  4.674113E-01
  4.667996E-01
  4.688812E-01
  4.681232E-01
  4.697080E-01
  4.682700E-01
  4.691867E-01
  4.672729E-01
  4.680376E-01
  4.663437E-01
  4.676376E-01
  4.666065E-01
  4.684468E-01
  4.676044E-01
  4.691420E-01
  4.675505E-01
  4.681218E-01
  4.656889E-01
  4.658723E-01
  4.636882E-01
  4.647141E-01
  4.660930E-01
  4.673437E-01
  4.667287E-01
  4.681732E-01
  4.674772E-01
  4.686450E-01
  4.676460E-01
  4.686449E-01
  4.676643E-01
  4.687884E-01
  4.678946E-01
  4.689771E-01
  4.679622E-01
  4.690119E-01
  4.682186E-01
  4.697648E-01
  4.695514E-01
  4.714284E-01
  4.710027E-01
  4.720525E-01
  4.704110E-01
  4.702955E-01
  4.679884E-01
  4.679578E-01
  4.664343E-01
  4.675782E-01
  4.672121E-01
  4.691603E-01
  4.690868E-01
  4.708427E-01
  4.702423E-01
  4.713311E-01
  4.701007E-01
  4.707211E-01
  4.692381E-01
  4.698013E-01
  4.683784E-01
  4.690260E-01
  4.676560E-01
  4.683397E-01
  4.670603E-01
  4.679594E-01
  4.670260E-01
  4.683178E-01
  4.676835E-01
  4.690565E-01
  4.682447E-01
  4.692488E-01
  4.680239E-01
  4.687362E-01
  4.674588E-01
  4.683835E-01
  4.675060E-01
  4.688654E-01
  4.682874E-01
  4.696915E-01
  4.688810E-01
  4.698512E-01
  4.685379E-01
  4.690666E-01
  4.674615E-01
  4.678909E-01
  4.663933E-01
  4.671295E-01
  4.635094E-01
  4.649813E-01
  4.651575E-01
  4.672272E-01
  4.675012E-01
  4.692447E-01
  4.689399E-01
  4.700339E-01
  4.691364E-01
  4.697528E-01
  4.685146E-01
  4.689584E-01
  4.677746E-01
  4.685543E-01
  4.679726E-01
  4.694833E-01
  4.695095E-01
  4.712219E-01
  4.708578E-01
  4.716098E-01
  4.699738E-01
  4.695581E-01
  4.672697E-01
  4.669486E-01
  4.654512E-01
  4.663057E-01
  4.659343E-01
  4.675028E-01
  4.672940E-01
  4.685940E-01
  4.679714E-01
  4.689926E-01
  4.683492E-01
  4.695200E-01
  4.689688E-01
  4.699538E-01
  4.688654E-01
  4.690915E-01
  4.672981E-01
  4.671610E-01
  4.655097E-01
  4.659869E-01
  4.652162E-01
  4.665597E-01
  4.664002E-01
  4.679767E-01
  4.676815E-01
  4.688586E-01
  4.680471E-01
  4.687370E-01
  4.675899E-01
  4.681812E-01
  4.672023E-01
  4.681810E-01
  4.676759E-01
  4.690210E-01
  4.685813E-01
  4.695778E-01
  4.684048E-01
  4.684661E-01
  4.664420E-01
  4.660276E-01
  4.640940E-01
  4.643533E-01
  4.662458E-01
  4.670529E-01
  4.666592E-01
  4.678217E-01
  4.675698E-01
  4.686339E-01
  4.681147E-01
  4.688662E-01
  4.680897E-01
  4.686686E-01
  4.677777E-01
  4.682805E-01
  4.673930E-01
  4.680743E-01
  4.676140E-01
  4.689256E-01
  4.690942E-01
  4.707342E-01
  4.706851E-01
  4.715214E-01
  4.703086E-01
  4.700350E-01
  4.681849E-01
  4.679775E-01
  4.668407E-01
  4.676916E-01
  4.675609E-01
  4.690461E-01
  4.690456E-01
  4.702194E-01
  4.696490E-01
  4.702014E-01
  4.691168E-01
  4.693437E-01
  4.681311E-01
  4.683839E-01
  4.672822E-01
  4.676674E-01
  4.666885E-01
  4.671992E-01
  4.663878E-01
  4.671353E-01
  4.666092E-01
  4.676162E-01
  4.672293E-01
  4.681929E-01
  4.675905E-01
  4.682545E-01
  4.673985E-01
  4.679733E-01
  4.672505E-01
  4.681511E-01
  4.678358E-01
  4.690707E-01
  4.688765E-01
  4.699533E-01
  4.693592E-01
  4.699168E-01
  4.688314E-01
  4.690318E-01
  4.677580E-01
  4.679202E-01
  4.667320E-01
  4.671001E-01
  4.641729E-01
  4.653674E-01
  4.655644E-01
  4.672278E-01
  4.675291E-01
  4.689530E-01
  4.687565E-01
  4.695427E-01
  4.686920E-01
  4.689203E-01
  4.677048E-01
  4.678396E-01
  4.668485E-01
  4.675163E-01
  4.672753E-01
  4.687280E-01
  4.690646E-01
  4.706566E-01
  4.705648E-01
  4.712063E-01
  4.698788E-01
  4.693652E-01
  4.673302E-01
  4.667795E-01
  4.653573E-01
  4.658082E-01
  4.653895E-01
  4.665080E-01
  4.662820E-01
  4.672227E-01
  4.667095E-01
  4.675056E-01
  4.670844E-01
  4.680994E-01
  4.677912E-01
  4.686116E-01
  4.677648E-01
  4.678673E-01
  4.664096E-01
  4.662698E-01
  4.650463E-01
  4.655268E-01
  4.650750E-01
  4.662140E-01
  4.661244E-01
  4.672834E-01
  4.669493E-01
  4.677405E-01
  4.670540E-01
  4.676059E-01
  4.668413E-01
  4.674830E-01
  4.669480E-01
  4.678939E-01
  4.676349E-01
  4.687054E-01
  4.683146E-01
  4.689595E-01
  4.679141E-01
  4.678374E-01
  4.662157E-01
  4.658974E-01
  4.644666E-01
  4.647442E-01
  4.675241E-01
  4.680523E-01
  4.676069E-01
  4.681129E-01
  4.676406E-01
  4.680729E-01
  4.674722E-01
  4.677551E-01
  4.670331E-01
  4.672560E-01
  4.665454E-01
  4.668580E-01
  4.663424E-01
  4.669976E-01
  4.669865E-01
  4.682388E-01
  4.687447E-01
  4.702049E-01
  4.704289E-01
  4.710952E-01
  4.701981E-01
  4.697558E-01
  4.681221E-01
  4.675415E-01
  4.663681E-01
  4.666350E-01
  4.663791E-01
  4.673493E-01
  4.674301E-01
  4.683695E-01
  4.681568E-01
  4.686783E-01
  4.680412E-01
  4.682104E-01
  4.673368E-01
  4.674043E-01
  4.665622E-01
  4.667750E-01
  4.661610E-01
  4.666490E-01
  4.663188E-01
  4.670525E-01
  4.668722E-01
  4.676030E-01
  4.672390E-01
  4.676363E-01
  4.668884E-01
  4.669935E-01
  4.661766E-01
  4.664999E-01
  4.661501E-01
  4.670527E-01
  4.672016E-01
  4.683418E-01
  4.683700E-01
  4.690638E-01
  4.684784E-01
  4.686135E-01
  4.677144E-01
  4.678543E-01
  4.672099E-01
  4.676928E-01
  4.673180E-01
  4.679164E-01
  4.660252E-01
  4.667604E-01
  4.669832E-01
  4.676619E-01
  4.677202E-01
  4.681578E-01
  4.679103E-01
  4.679890E-01
  4.673683E-01
  4.671382E-01
  4.663763E-01
  4.662614E-01
  4.659029E-01
  4.664282E-01
  4.668136E-01
  4.680018E-01
  4.687800E-01
  4.699475E-01
  4.702353E-01
  4.705015E-01
  4.696546E-01
  4.688190E-01
  4.671898E-01
  4.661021E-01
  4.647987E-01
  4.644711E-01
  4.640845E-01
  4.645438E-01
  4.646489E-01
  4.653187E-01
  4.654979E-01
  4.662572E-01
  4.665827E-01
  4.674443E-01
  4.676596E-01
  4.680927E-01
  4.676171E-01
  4.673154E-01
  4.663408E-01
  4.659740E-01
  4.653813E-01
  4.656645E-01
  4.657088E-01
  4.663661E-01
  4.664107E-01
  4.667548E-01
  4.663558E-01
  4.663360E-01
  4.657984E-01
  4.658995E-01
  4.656746E-01
  4.661575E-01
  4.662591E-01
  4.669244E-01
  4.670215E-01
  4.674946E-01
  4.672480E-01
  4.672972E-01
  4.666488E-01
  4.664315E-01
  4.657398E-01
  4.657278E-01
  4.654350E-01
  4.658979E-01
  4.697362E-01
  4.695153E-01
  4.692724E-01
  4.684884E-01
  4.679371E-01
  4.670816E-01
  4.666251E-01
  4.659576E-01
  4.657339E-01
  4.653219E-01
  4.653716E-01
  4.652557E-01
  4.656352E-01
  4.658931E-01
  4.666815E-01
  4.673329E-01
  4.683999E-01
  4.690886E-01
  4.698509E-01
  4.698792E-01
  4.697344E-01
  4.688247E-01
  4.679633E-01
  4.667529E-01
  4.660699E-01
  4.654328E-01
  4.655312E-01
  4.656727E-01
  4.663802E-01
  4.668693E-01
  4.676386E-01
  4.679257E-01
  4.682857E-01
  4.680460E-01
  4.678823E-01
  4.672523E-01
  4.669343E-01
  4.664245E-01
  4.664608E-01
  4.664325E-01
  4.669343E-01
  4.672121E-01
  4.677505E-01
  4.677504E-01
  4.677421E-01
  4.670698E-01
  4.664769E-01
  4.655246E-01
  4.650945E-01
  4.647423E-01
  4.651866E-01
  4.657108E-01
  4.667468E-01
  4.673827E-01
  4.680237E-01
  4.679177E-01
  4.677631E-01
  4.671250E-01
  4.669143E-01
  4.667130E-01
  4.672445E-01
  4.677793E-01
  4.687422E-01
  4.692429E-01
  4.682498E-01
  4.679620E-01
  4.685728E-01
  4.677994E-01
  4.680281E-01
  4.670367E-01
  4.671799E-01
  4.661596E-01
  4.662803E-01
  4.652632E-01
  4.654888E-01
  4.647545E-01
  4.654550E-01
  4.653128E-01
  4.665832E-01
  4.668416E-01
  4.682424E-01
  4.683292E-01
  4.692824E-01
  4.687086E-01
  4.688788E-01
  4.675231E-01
  4.670671E-01
  4.653933E-01
  4.650178E-01
  4.637996E-01
  4.641158E-01
  4.636339E-01
  4.645788E-01
  4.645641E-01
  4.658446E-01
  4.660731E-01
  4.674812E-01
  4.676271E-01
  4.686447E-01
  4.680928E-01
  4.682607E-01
  4.669785E-01
  4.668029E-01
  4.656896E-01
  4.661046E-01
  4.657294E-01
  4.666970E-01
  4.664505E-01
  4.670838E-01
  4.662099E-01
  4.662155E-01
  4.649937E-01
  4.650793E-01
  4.643309E-01
  4.650991E-01
  4.650008E-01
  4.661886E-01
  4.661881E-01
  4.671754E-01
  4.667784E-01
  4.673057E-01
  4.665136E-01
  4.668151E-01
  4.660323E-01
  4.665856E-01
  4.662275E-01
  4.672364E-01
  4.671937E-01
  4.715860E-01
  4.702261E-01
  4.704705E-01
  4.683196E-01
  4.681503E-01
  4.659744E-01
  4.660803E-01
  4.643532E-01
  4.649700E-01
  4.637444E-01
  4.648188E-01
  4.639929E-01
  4.654021E-01
  4.648407E-01
  4.664408E-01
  4.659941E-01
  4.676253E-01
  4.671088E-01
  4.685462E-01
  4.676992E-01
  4.686903E-01
  4.673503E-01
  4.679090E-01
  4.663107E-01
  4.668625E-01
  4.655205E-01
  4.665362E-01
  4.657631E-01
  4.673308E-01
  4.669720E-01
  4.687124E-01
  4.682177E-01
  4.695107E-01
  4.683434E-01
  4.689104E-01
  4.671762E-01
  4.675154E-01
  4.659697E-01
  4.668564E-01
  4.660429E-01
  4.676112E-01
  4.672027E-01
  4.687469E-01
  4.678540E-01
  4.685659E-01
  4.667325E-01
  4.667010E-01
  4.645925E-01
  4.648878E-01
  4.636427E-01
  4.650861E-01
  4.649220E-01
  4.670536E-01
  4.670013E-01
  4.686883E-01
  4.678462E-01
  4.687221E-01
  4.673656E-01
  4.682174E-01
  4.673227E-01
  4.689195E-01
  4.687308E-01
  4.706826E-01
  4.703190E-01
  4.694076E-01
  4.681327E-01
  4.691713E-01
  4.674152E-01
  4.680933E-01
  4.661831E-01
  4.668892E-01
  4.650975E-01
  4.659336E-01
  4.642736E-01
  4.652977E-01
  4.639426E-01
  4.653891E-01
  4.644909E-01
  4.662993E-01
  4.655648E-01
  4.673160E-01
  4.663615E-01
  4.678200E-01
  4.665641E-01
  4.677289E-01
  4.661817E-01
  4.670764E-01
  4.653415E-01
  4.662060E-01
  4.646344E-01
  4.658214E-01
  4.646456E-01
  4.662182E-01
  4.653790E-01
  4.672376E-01
  4.666207E-01
  4.685704E-01
  4.678054E-01
  4.692928E-01
  4.677961E-01
  4.684797E-01
  4.663955E-01
  4.669544E-01
  4.652789E-01
  4.666198E-01
  4.657672E-01
  4.676135E-01
  4.667289E-01
  4.680234E-01
  4.663098E-01
  4.668525E-01
  4.647724E-01
  4.654678E-01
  4.639818E-01
  4.654826E-01
  4.647475E-01
  4.667539E-01
  4.662142E-01
  4.681473E-01
  4.673536E-01
  4.689361E-01
  4.677621E-01
  4.690006E-01
  4.675961E-01
  4.687854E-01
  4.675249E-01
  4.689726E-01
  4.679324E-01
  4.718906E-01
  4.699895E-01
  4.704154E-01
  4.679338E-01
  4.680829E-01
  4.656543E-01
  4.661199E-01
  4.641584E-01
  4.651326E-01
  4.636467E-01
  4.650279E-01
  4.638677E-01
  4.654867E-01
  4.644705E-01
  4.661423E-01
  4.651076E-01
  4.667251E-01
  4.656364E-01
  4.672182E-01
  4.661051E-01
  4.676510E-01
  4.664733E-01
  4.679319E-01
  4.666736E-01
  4.680964E-01
  4.668748E-01
  4.684122E-01
  4.673635E-01
  4.690880E-01
  4.681725E-01
  4.698916E-01
  4.687562E-01
  4.700164E-01
  4.682487E-01
  4.688642E-01
  4.666511E-01
  4.672009E-01
  4.653714E-01
  4.666753E-01
  4.657627E-01
  4.678755E-01
  4.674132E-01
  4.694628E-01
  4.684155E-01
  4.695097E-01
  4.674152E-01
  4.676959E-01
  4.652859E-01
  4.658572E-01
  4.642558E-01
  4.659057E-01
  4.653398E-01
  4.677152E-01
  4.674242E-01
  4.696347E-01
  4.688748E-01
  4.705143E-01
  4.692819E-01
  4.706855E-01
  4.694873E-01
  4.711146E-01
  4.701636E-01
  4.718736E-01
  4.707089E-01
  4.688844E-01
  4.677185E-01
  4.685392E-01
  4.672457E-01
  4.679355E-01
  4.665893E-01
  4.672991E-01
  4.659779E-01
  4.666606E-01
  4.652748E-01
  4.659403E-01
  4.646778E-01
  4.656331E-01
  4.647532E-01
  4.660482E-01
  4.653475E-01
  4.666288E-01
  4.657831E-01
  4.668920E-01
  4.659239E-01
  4.669761E-01
  4.659876E-01
  4.670266E-01
  4.660335E-01
  4.670972E-01
  4.661644E-01
  4.672963E-01
  4.663978E-01
  4.675172E-01
  4.665977E-01
  4.677501E-01
  4.669408E-01
  4.682166E-01
  4.674101E-01
  4.684498E-01
  4.671654E-01
  4.676412E-01
  4.659661E-01
  4.664555E-01
  4.652669E-01
  4.665635E-01
  4.661860E-01
  4.679615E-01
  4.675342E-01
  4.687632E-01
  4.675308E-01
  4.680217E-01
  4.663807E-01
  4.668881E-01