# vtk DataFile Version 2.0
title
ASCII
DATASET STRUCTURED_GRID
DIMENSIONS   64   64    1
POINTS   4096  float
  0.000000E+00  0.000000E+00  0.000000E+00
  0.000000E+00  3.906250E-01  0.000000E+00
  0.000000E+00  7.812500E-01  0.000000E+00
  0.000000E+00  1.171875E+00  0.000000E+00
  0.000000E+00  1.562500E+00  0.000000E+00
  0.000000E+00  1.953125E+00  0.000000E+00
  0.000000E+00  2.343750E+00  0.000000E+00
  0.000000E+00  2.734375E+00  0.000000E+00
  0.000000E+00  3.125000E+00  0.000000E+00
  0.000000E+00  3.515625E+00  0.000000E+00
  0.000000E+00  3.906250E+00  0.000000E+00
  0.000000E+00  4.296875E+00  0.000000E+00
  0.000000E+00  4.687500E+00  0.000000E+00
  0.000000E+00  5.078125E+00  0.000000E+00
  0.000000E+00  5.468750E+00  0.000000E+00
  0.000000E+00  5.859375E+00  0.000000E+00
  0.000000E+00  6.250000E+00  0.000000E+00
  0.000000E+00  6.640625E+00  0.000000E+00
  0.000000E+00  7.031250E+00  0.000000E+00
  0.000000E+00  7.421875E+00  0.000000E+00
  0.000000E+00  7.812500E+00  0.000000E+00
  0.000000E+00  8.203125E+00  0.000000E+00
  0.000000E+00  8.593750E+00  0.000000E+00
  0.000000E+00  8.984375E+00  0.000000E+00
  0.000000E+00  9.375000E+00  0.000000E+00
  0.000000E+00  9.765625E+00  0.000000E+00
  0.000000E+00  1.015625E+01  0.000000E+00
  0.000000E+00  1.054688E+01  0.000000E+00
  0.000000E+00  1.093750E+01  0.000000E+00
  0.000000E+00  1.132812E+01  0.000000E+00
  0.000000E+00  1.171875E+01  0.000000E+00
  0.000000E+00  1.210938E+01  0.000000E+00
  0.000000E+00  1.250000E+01  0.000000E+00
  0.000000E+00  1.289062E+01  0.000000E+00
  0.000000E+00  1.328125E+01  0.000000E+00
  0.000000E+00  1.367188E+01  0.000000E+00
  0.000000E+00  1.406250E+01  0.000000E+00
  0.000000E+00  1.445312E+01  0.000000E+00
  0.000000E+00  1.484375E+01  0.000000E+00
  0.000000E+00  1.523438E+01  0.000000E+00
  0.000000E+00  1.562500E+01  0.000000E+00
  0.000000E+00  1.601562E+01  0.000000E+00
  0.000000E+00  1.640625E+01  0.000000E+00
  0.000000E+00  1.679688E+01  0.000000E+00
  0.000000E+00  1.718750E+01  0.000000E+00
  0.000000E+00  1.757812E+01  0.000000E+00
  0.000000E+00  1.796875E+01  0.000000E+00
  0.000000E+00  1.835938E+01  0.000000E+00
  0.000000E+00  1.875000E+01  0.000000E+00
  0.000000E+00  1.914062E+01  0.000000E+00
  0.000000E+00  1.953125E+01  0.000000E+00
  0.000000E+00  1.992188E+01  0.000000E+00
  0.000000E+00  2.031250E+01  0.000000E+00
  0.000000E+00  2.070312E+01  0.000000E+00
  0.000000E+00  2.109375E+01  0.000000E+00
  0.000000E+00  2.148438E+01  0.000000E+00
  0.000000E+00  2.187500E+01  0.000000E+00
  0.000000E+00  2.226562E+01  0.000000E+00
  0.000000E+00  2.265625E+01  0.000000E+00
  0.000000E+00  2.304688E+01  0.000000E+00
  0.000000E+00  2.343750E+01  0.000000E+00
  0.000000E+00  2.382812E+01  0.000000E+00
  0.000000E+00  2.421875E+01  0.000000E+00
  0.000000E+00  2.460938E+01  0.000000E+00
  3.906250E-01  0.000000E+00  0.000000E+00
  3.906250E-01  3.906250E-01  0.000000E+00
  3.906250E-01  7.812500E-01  0.000000E+00
  3.906250E-01  1.171875E+00  0.000000E+00
  3.906250E-01  1.562500E+00  0.000000E+00
  3.906250E-01  1.953125E+00  0.000000E+00
  3.906250E-01  2.343750E+00  0.000000E+00
  3.906250E-01  2.734375E+00  0.000000E+00
  3.906250E-01  3.125000E+00  0.000000E+00
  3.906250E-01  3.515625E+00  0.000000E+00
  3.906250E-01  3.906250E+00  0.000000E+00
  3.906250E-01  4.296875E+00  0.000000E+00
  3.906250E-01  4.687500E+00  0.000000E+00
  3.906250E-01  5.078125E+00  0.000000E+00
  3.906250E-01  5.468750E+00  0.000000E+00
  3.906250E-01  5.859375E+00  0.000000E+00
  3.906250E-01  6.250000E+00  0.000000E+00
  3.906250E-01  6.640625E+00  0.000000E+00
  3.906250E-01  7.031250E+00  0.000000E+00
  3.906250E-01  7.421875E+00  0.000000E+00
  3.906250E-01  7.812500E+00  0.000000E+00
  3.906250E-01  8.203125E+00  0.000000E+00
  3.906250E-01  8.593750E+00  0.000000E+00
  3.906250E-01  8.984375E+00  0.000000E+00
  3.906250E-01  9.375000E+00  0.000000E+00
  3.906250E-01  9.765625E+00  0.000000E+00
  3.906250E-01  1.015625E+01  0.000000E+00
  3.906250E-01  1.054688E+01  0.000000E+00
  3.906250E-01  1.093750E+01  0.000000E+00
  3.906250E-01  1.132812E+01  0.000000E+00
  3.906250E-01  1.171875E+01  0.000000E+00
  3.906250E-01  1.210938E+01  0.000000E+00
  3.906250E-01  1.250000E+01  0.000000E+00
  3.906250E-01  1.289062E+01  0.000000E+00
  3.906250E-01  1.328125E+01  0.000000E+00
  3.906250E-01  1.367188E+01  0.000000E+00
  3.906250E-01  1.406250E+01  0.000000E+00
  3.906250E-01  1.445312E+01  0.000000E+00
  3.906250E-01  1.484375E+01  0.000000E+00
  3.906250E-01  1.523438E+01  0.000000E+00
  3.906250E-01  1.562500E+01  0.000000E+00
  3.906250E-01  1.601562E+01  0.000000E+00
  3.906250E-01  1.640625E+01  0.000000E+00
  3.906250E-01  1.679688E+01  0.000000E+00
  3.906250E-01  1.718750E+01  0.000000E+00
  3.906250E-01  1.757812E+01  0.000000E+00
  3.906250E-01  1.796875E+01  0.000000E+00
  3.906250E-01  1.835938E+01  0.000000E+00
  3.906250E-01  1.875000E+01  0.000000E+00
  3.906250E-01  1.914062E+01  0.000000E+00
  3.906250E-01  1.953125E+01  0.000000E+00
  3.906250E-01  1.992188E+01  0.000000E+00
  3.906250E-01  2.031250E+01  0.000000E+00
  3.906250E-01  2.070312E+01  0.000000E+00
  3.906250E-01  2.109375E+01  0.000000E+00
  3.906250E-01  2.148438E+01  0.000000E+00
  3.906250E-01  2.187500E+01  0.000000E+00
  3.906250E-01  2.226562E+01  0.000000E+00
  3.906250E-01  2.265625E+01  0.000000E+00
  3.906250E-01  2.304688E+01  0.000000E+00
  3.906250E-01  2.343750E+01  0.000000E+00
  3.906250E-01  2.382812E+01  0.000000E+00
  3.906250E-01  2.421875E+01  0.000000E+00
  3.906250E-01  2.460938E+01  0.000000E+00
  7.812500E-01  0.000000E+00  0.000000E+00
  7.812500E-01  3.906250E-01  0.000000E+00
  7.812500E-01  7.812500E-01  0.000000E+00
  7.812500E-01  1.171875E+00  0.000000E+00
  7.812500E-01  1.562500E+00  0.000000E+00
  7.812500E-01  1.953125E+00  0.000000E+00
  7.812500E-01  2.343750E+00  0.000000E+00
  7.812500E-01  2.734375E+00  0.000000E+00
  7.812500E-01  3.125000E+00  0.000000E+00
  7.812500E-01  3.515625E+00  0.000000E+00
  7.812500E-01  3.906250E+00  0.000000E+00
  7.812500E-01  4.296875E+00  0.000000E+00
  7.812500E-01  4.687500E+00  0.000000E+00
  7.812500E-01  5.078125E+00  0.000000E+00
  7.812500E-01  5.468750E+00  0.000000E+00
  7.812500E-01  5.859375E+00  0.000000E+00
  7.812500E-01  6.250000E+00  0.000000E+00
  7.812500E-01  6.640625E+00  0.000000E+00
  7.812500E-01  7.031250E+00  0.000000E+00
  7.812500E-01  7.421875E+00  0.000000E+00
  7.812500E-01  7.812500E+00  0.000000E+00
  7.812500E-01  8.203125E+00  0.000000E+00
  7.812500E-01  8.593750E+00  0.000000E+00
  7.812500E-01  8.984375E+00  0.000000E+00
  7.812500E-01  9.375000E+00  0.000000E+00
  7.812500E-01  9.765625E+00  0.000000E+00
  7.812500E-01  1.015625E+01  0.000000E+00
  7.812500E-01  1.054688E+01  0.000000E+00
  7.812500E-01  1.093750E+01  0.000000E+00
  7.812500E-01  1.132812E+01  0.000000E+00
  7.812500E-01  1.171875E+01  0.000000E+00
  7.812500E-01  1.210938E+01  0.000000E+00
  7.812500E-01  1.250000E+01  0.000000E+00
  7.812500E-01  1.289062E+01  0.000000E+00
  7.812500E-01  1.328125E+01  0.000000E+00
  7.812500E-01  1.367188E+01  0.000000E+00
  7.812500E-01  1.406250E+01  0.000000E+00
  7.812500E-01  1.445312E+01  0.000000E+00
  7.812500E-01  1.484375E+01  0.000000E+00
  7.812500E-01  1.523438E+01  0.000000E+00
  7.812500E-01  1.562500E+01  0.000000E+00
  7.812500E-01  1.601562E+01  0.000000E+00
  7.812500E-01  1.640625E+01  0.000000E+00
  7.812500E-01  1.679688E+01  0.000000E+00
  7.812500E-01  1.718750E+01  0.000000E+00
  7.812500E-01  1.757812E+01  0.000000E+00
  7.812500E-01  1.796875E+01  0.000000E+00
  7.812500E-01  1.835938E+01  0.000000E+00
  7.812500E-01  1.875000E+01  0.000000E+00
  7.812500E-01  1.914062E+01  0.000000E+00
  7.812500E-01  1.953125E+01  0.000000E+00
  7.812500E-01  1.992188E+01  0.000000E+00
  7.812500E-01  2.031250E+01  0.000000E+00
  7.812500E-01  2.070312E+01  0.000000E+00
  7.812500E-01  2.109375E+01  0.000000E+00
  7.812500E-01  2.148438E+01  0.000000E+00
  7.812500E-01  2.187500E+01  0.000000E+00
  7.812500E-01  2.226562E+01  0.000000E+00
  7.812500E-01  2.265625E+01  0.000000E+00
  7.812500E-01  2.304688E+01  0.000000E+00
  7.812500E-01  2.343750E+01  0.000000E+00
  7.812500E-01  2.382812E+01  0.000000E+00
  7.812500E-01  2.421875E+01  0.000000E+00
  7.812500E-01  2.460938E+01  0.000000E+00
  1.171875E+00  0.000000E+00  0.000000E+00
  1.171875E+00  3.906250E-01  0.000000E+00
  1.171875E+00  7.812500E-01  0.000000E+00
  1.171875E+00  1.171875E+00  0.000000E+00
  1.171875E+00  1.562500E+00  0.000000E+00
  1.171875E+00  1.953125E+00  0.000000E+00
  1.171875E+00  2.343750E+00  0.000000E+00
  1.171875E+00  2.734375E+00  0.000000E+00
  1.171875E+00  3.125000E+00  0.000000E+00
  1.171875E+00  3.515625E+00  0.000000E+00
  1.171875E+00  3.906250E+00  0.000000E+00
  1.171875E+00  4.296875E+00  0.000000E+00
  1.171875E+00  4.687500E+00  0.000000E+00
  1.171875E+00  5.078125E+00  0.000000E+00
  1.171875E+00  5.468750E+00  0.000000E+00
  1.171875E+00  5.859375E+00  0.000000E+00
  1.171875E+00  6.250000E+00  0.000000E+00
  1.171875E+00  6.640625E+00  0.000000E+00
  1.171875E+00  7.031250E+00  0.000000E+00
  1.171875E+00  7.421875E+00  0.000000E+00
  1.171875E+00  7.812500E+00  0.000000E+00
  1.171875E+00  8.203125E+00  0.000000E+00
  1.171875E+00  8.593750E+00  0.000000E+00
  1.171875E+00  8.984375E+00  0.000000E+00
  1.171875E+00  9.375000E+00  0.000000E+00
  1.171875E+00  9.765625E+00  0.000000E+00
  1.171875E+00  1.015625E+01  0.000000E+00
  1.171875E+00  1.054688E+01  0.000000E+00
  1.171875E+00  1.093750E+01  0.000000E+00
  1.171875E+00  1.132812E+01  0.000000E+00
  1.171875E+00  1.171875E+01  0.000000E+00
  1.171875E+00  1.210938E+01  0.000000E+00
  1.171875E+00  1.250000E+01  0.000000E+00
  1.171875E+00  1.289062E+01  0.000000E+00
  1.171875E+00  1.328125E+01  0.000000E+00
  1.171875E+00  1.367188E+01  0.000000E+00
  1.171875E+00  1.406250E+01  0.000000E+00
  1.171875E+00  1.445312E+01  0.000000E+00
[...]
POINT_DATA   4096
SCALARS CON  float  1
LOOKUP_TABLE default
  4.696268E-01
  4.691273E-01
  4.722963E-01
  4.705198E-01
  4.720511E-01
  4.691375E-01
  4.705037E-01
  4.682341E-01
  4.704278E-01
  4.685469E-01
  4.704918E-01
  4.680362E-01
  4.696293E-01
  4.674241E-01
  4.698288E-01
  4.685796E-01
  4.715631E-01
  4.701913E-01
  4.723750E-01
  4.698353E-01
  4.708747E-01
  4.675005E-01
  4.681368E-01
  4.648139E-01
  4.659589E-01
  4.635677E-01
  4.658980E-01
  4.645950E-01
  4.675096E-01
  4.660818E-01
  4.683451E-01
  4.662329E-01
  4.682532E-01
  4.664516E-01
  4.690068E-01
  4.674482E-01
  4.696383E-01
  4.672040E-01
  4.684162E-01
  4.653214E-01
  4.663769E-01
  4.635610E-01
  4.651699E-01
  4.630974E-01
  4.656589E-01
  4.647410E-01
  4.684578E-01
  4.682621E-01
  4.717870E-01
  4.702971E-01
  4.718013E-01
  4.684593E-01
  4.692629E-01
  4.668426E-01
  4.697800E-01
  4.695704E-01
  4.735598E-01
  4.726133E-01
  4.743916E-01
  4.708092E-01
  4.707286E-01
  4.668302E-01
  4.680078E-01
  4.663030E-01
  4.714570E-01
  4.714369E-01
  4.736106E-01
  4.720858E-01
  4.723010E-01
  4.692563E-01
  4.690972E-01
  4.669313E-01
  4.683548E-01
  4.676238E-01
  4.696949E-01
  4.687233E-01
  4.700691E-01
  4.684842E-01
  4.697547E-01
  4.686677E-01
  4.706643E-01
  4.700204E-01
  4.718036E-01
  4.702783E-01
  4.708675E-01
  4.683409E-01
  4.684866E-01
  4.661389E-01
  4.669066E-01
  4.653823E-01
  4.670043E-01
  4.662592E-01
  4.684606E-01
  4.679246E-01
  4.698347E-01
  4.685473E-01
  4.695010E-01
  4.674212E-01
  4.680414E-01
  4.661521E-01
  4.672930E-01
  4.659098E-01
  4.672316E-01
  4.655948E-01
  4.663830E-01
  4.642718E-01
  4.649914E-01
  4.634014E-01
  4.651772E-01
  4.649114E-01
  4.678775E-01
  4.682284E-01
  4.709081E-01
  4.700573E-01
  4.710772E-01
  4.689378E-01
  4.698191E-01
  4.688864E-01
  4.716903E-01
  4.722484E-01
  4.751470E-01
  4.742289E-01
  4.747781E-01
  4.717437E-01
  4.712882E-01
  4.686314E-01
  4.696233E-01
  4.688491E-01
  4.675639E-01
  4.695543E-01
  4.717399E-01
  4.720038E-01
  4.716759E-01
  4.698606E-01
  4.687746E-01
  4.676351E-01
  4.680291E-01
  4.682571E-01
  4.692584E-01
  4.692599E-01
  4.696178E-01
  4.691194E-01
  4.694674E-01
  4.694151E-01
  4.703259E-01
  4.705398E-01
  4.711697E-01
  4.705831E-01
  4.701512E-01
  4.685796E-01
  4.675131E-01
  4.657998E-01
  4.651012E-01
  4.641764E-01
  4.644945E-01
  4.645356E-01
  4.654876E-01
  4.656858E-01
  4.664086E-01
  4.662742E-01
  4.668459E-01
  4.668237E-01
  4.675903E-01
  4.675423E-01
  4.678673E-01
  4.670154E-01
  4.664357E-01
  4.648874E-01
  4.640321E-01
  4.627058E-01
  4.625520E-01
  4.623334E-01
  4.635565E-01
  4.647446E-01
  4.670530E-01
  4.686164E-01
  4.703317E-01
  4.704066E-01
  4.702480E-01
  4.688837E-01
  4.684728E-01
  4.682717E-01
  4.699086E-01
  4.715463E-01
  4.737199E-01
  4.741054E-01
  4.736391E-01
  4.710892E-01
  4.686424E-01
  4.659094E-01
  4.651681E-01
  4.653503E-01
  4.689337E-01
  4.713805E-01
  4.719432E-01
  4.725717E-01
  4.705913E-01
  4.690628E-01
  4.663103E-01
  4.657257E-01
  4.651106E-01
  4.667959E-01
  4.675839E-01
  4.693719E-01
  4.692349E-01
  4.698061E-01
  4.689138E-01
  4.695589E-01
  4.693859E-01
  4.708074E-01
  4.708499E-01
  4.716578E-01
  4.704858E-01
  4.700297E-01
  4.680632E-01
  4.674902E-01
  4.659556E-01
  4.660890E-01
  4.653291E-01
  4.662288E-01
  4.661811E-01
  4.676061E-01
  4.676855E-01
  4.687005E-01
  4.679303E-01
  4.680105E-01
  4.666579E-01
  4.667617E-01
  4.659348E-01
  4.666577E-01
  4.660911E-01
  4.665235E-01
  4.653219E-01
  4.652510E-01
  4.641131E-01
  4.647916E-01
  4.648326E-01
  4.666558E-01
  4.673767E-01
  4.691762E-01
  4.691704E-01
  4.697825E-01
  4.685946E-01
  4.686045E-01
  4.678074E-01
  4.691405E-01
  4.699644E-01
  4.722910E-01
  4.728050E-01
  4.735185E-01
  4.717990E-01
  4.706217E-01
  4.680951E-01
  4.674334E-01
  4.665006E-01
  4.679513E-01
  4.652577E-01
  4.690694E-01
  4.693617E-01
  4.714584E-01
  4.691646E-01
  4.690224E-01
  4.658253E-01
  4.663748E-01
  4.649225E-01
  4.673011E-01
  4.669277E-01
  4.693422E-01
  4.682635E-01
  4.698566E-01
  4.683909E-01
  4.702126E-01
  4.693485E-01
  4.716603E-01
  4.707403E-01
  4.722970E-01
  4.701095E-01
  4.702963E-01
  4.670719E-01
  4.668482E-01
  4.639149E-01
  4.645527E-01
  4.627801E-01
  4.645591E-01
  4.636410E-01
  4.658570E-01
  4.649987E-01
  4.670680E-01
  4.660513E-01
  4.680509E-01
  4.670037E-01
  4.688574E-01
  4.674057E-01
  4.685761E-01
  4.663061E-01
  4.667849E-01
  4.642257E-01
  4.649949E-01
  4.632997E-01
  4.652956E-01
  4.648357E-01
  4.677033E-01
  4.674928E-01
  4.699177E-01
  4.686955E-01
  4.698250E-01
  4.674291E-01
  4.679492E-01
  4.658287E-01
  4.675069E-01
  4.669962E-01
  4.699951E-01
  4.698020E-01
  4.718054E-01
  4.695916E-01
  4.693328E-01
  4.655603E-01
  4.651535E-01
  4.628114E-01
  4.649387E-01
  4.672954E-01
  4.704863E-01
  4.694324E-01
  4.712436E-01
  4.681479E-01
  4.681270E-01
  4.643130E-01
  4.650959E-01
  4.632562E-01
  4.662593E-01
  4.659038E-01
  4.691366E-01
  4.679333E-01
  4.699524E-01
  4.679785E-01
  4.701101E-01
  4.689629E-01
  4.719794E-01
  4.710456E-01
  4.732544E-01
  4.707301E-01
  4.712300E-01
  4.675637E-01
  4.678303E-01
  4.647409E-01
  4.660367E-01
  4.640857E-01
  4.664476E-01
  4.654159E-01
  4.684386E-01
  4.676087E-01
  4.702105E-01
  4.684093E-01
  4.698726E-01
  4.672901E-01
  4.686689E-01
  4.666129E-01
  4.686651E-01
  4.669145E-01
  4.687119E-01
  4.664144E-01
  4.678911E-01
  4.658669E-01
  4.681470E-01
  4.670084E-01
  4.697434E-01
  4.683800E-01
  4.703274E-01
  4.679587E-01
  4.690523E-01
  4.662614E-01
  4.675297E-01
  4.655208E-01
  4.679570E-01
  4.670439E-01
  4.699872E-01
  4.687130E-01
  4.705780E-01
  4.680106E-01
  4.689226E-01
  4.660712E-01
  4.673973E-01
  4.654925E-01
  4.680427E-01
  4.642778E-01
  4.677177E-01
  4.671537E-01
  4.697207E-01
  4.675339E-01
  4.685272E-01
  4.655644E-01
  4.668767E-01
  4.650413E-01
  4.676239E-01
  4.665606E-01
  4.691533E-01
  4.675577E-01
  4.695966E-01
  4.679015E-01
  4.704261E-01
  4.695069E-01
  4.725515E-01
  4.714161E-01
  4.733641E-01
  4.705221E-01
  4.707083E-01
  4.666395E-01
  4.665198E-01
  4.631161E-01
  4.643604E-01
  4.625611E-01
  4.651952E-01
  4.642812E-01
  4.672392E-01
  4.662271E-01
  4.688953E-01
  4.676046E-01
  4.700943E-01
  4.686725E-01
  4.709266E-01
  4.690165E-01
  4.705054E-01
  4.677204E-01
  4.685438E-01
  4.656287E-01
  4.670086E-01
  4.651974E-01
  4.678299E-01
  4.669394E-01
  4.698284E-01
  4.684916E-01
  4.704626E-01
  4.680809E-01
  4.691770E-01
  4.662738E-01
  4.672976E-01
  4.648065E-01
  4.666650E-01
  4.652127E-01
  4.679525E-01
  4.668494E-01
  4.692032E-01
  4.670686E-01
  4.681154E-01
  4.649159E-01
  4.656131E-01
  4.630178E-01
  4.651404E-01
  4.666179E-01
  4.686719E-01
  4.676598E-01
  4.694398E-01
  4.675827E-01
  4.683192E-01
  4.658234E-01
  4.667649E-01
  4.652792E-01
  4.675172E-01
  4.669307E-01
  4.692474E-01
  4.680179E-01
  4.695246E-01
  4.679722E-01
  4.699628E-01
  4.694481E-01
  4.723280E-01
  4.718279E-01
  4.735621E-01
  4.711146E-01
  4.709111E-01
  4.673432E-01
  4.672164E-01
  4.647391E-01
  4.661707E-01
  4.651657E-01
  4.676769E-01
  4.673126E-01
  4.700735E-01
  4.695617E-01
  4.717369E-01
  4.702761E-01
  4.714279E-01
  4.692700E-01
  4.703029E-01
  4.685050E-01
  4.699800E-01
  4.683112E-01
  4.695224E-01
  4.674956E-01
  4.686829E-01
  4.671607E-01
  4.691609E-01
  4.682759E-01
  4.703419E-01
  4.689103E-01
  4.701156E-01
  4.679086E-01
  4.686915E-01
  4.664866E-01
  4.676452E-01
  4.660801E-01
  4.679626E-01
  4.669470E-01
  4.689646E-01
  4.676162E-01
  4.690388E-01
  4.671690E-01
  4.683702E-01
  4.665604E-01
  4.679314E-01
  4.662908E-01
  4.678840E-01
  4.635395E-01
  4.656206E-01
  4.657238E-01
  4.680897E-01
  4.677444E-01
  4.692545E-01
  4.681103E-01
  4.692160E-01
  4.680992E-01
  4.694228E-01
  4.683935E-01
  4.695198E-01
  4.681469E-01
  4.691282E-01
  4.681067E-01
  4.699355E-01
  4.698892E-01
  4.722561E-01
  4.718628E-01
  4.729301E-01
  4.706632E-01
  4.699505E-01
  4.666620E-01
  4.660619E-01
  4.639514E-01
  4.651205E-01
  4.647125E-01
  4.669758E-01
  4.668544E-01
  4.687773E-01
  4.680945E-01
  4.696238E-01
  4.688922E-01
  4.706239E-01
  4.700605E-01
  4.716138E-01
  4.703658E-01
  4.708367E-01
  4.684711E-01
  4.682504E-01
  4.659481E-01
  4.665603E-01
  4.655389E-01
  4.673818E-01
  4.671138E-01
  4.690677E-01
  4.683913E-01
  4.696935E-01
  4.683700E-01
  4.691521E-01
  4.674662E-01
  4.680761E-01
  4.664791E-01
  4.674840E-01
  4.665098E-01
  4.681389E-01
  4.675053E-01
  4.689923E-01
  4.677208E-01
  4.682555E-01
  4.660313E-01
  4.659647E-01
  4.637690E-01
  4.644496E-01
  4.657395E-01
  4.666842E-01
  4.664647E-01
  4.681218E-01
  4.680046E-01
  4.691553E-01
  4.683015E-01
  4.689673E-01
  4.681246E-01
  4.691481E-01
  4.686041E-01
  4.695323E-01
  4.685129E-01
  4.689710E-01
  4.679796E-01
  4.691824E-01
  4.693670E-01
  4.714945E-01
  4.716735E-01
  4.726368E-01
  4.709090E-01
  4.700835E-01
  4.675161E-01
  4.671487E-01
  4.660469E-01
  4.674391E-01
  4.676801E-01
  4.696422E-01
  4.697532E-01
  4.711954E-01
  4.706782E-01
  4.715080E-01
  4.704229E-01
  4.707880E-01
  4.694551E-01
  4.698506E-01
  4.687241E-01
  4.692716E-01
  4.680672E-01
  4.683591E-01
  4.669882E-01
  4.674726E-01
  4.666894E-01
  4.679029E-01
  4.676259E-01
  4.689083E-01
  4.683229E-01
  4.691574E-01
  4.682012E-01
  4.688272E-01
  4.678239E-01
  4.685724E-01
  4.678812E-01
  4.690665E-01
  4.687321E-01
  4.699540E-01
  4.692569E-01
  4.698920E-01
  4.686859E-01
  4.690714E-01
  4.678059E-01
  4.681204E-01
  4.666894E-01
  4.669104E-01
  4.627782E-01
  4.642154E-01
  4.648080E-01
  4.671648E-01
  4.679189E-01
  4.697619E-01
  4.696260E-01
  4.705584E-01
  4.697285E-01
  4.702164E-01
  4.690803E-01
  4.693061E-01
  4.680077E-01
  4.683637E-01
  4.676504E-01
  4.689831E-01
  4.692868E-01
  4.711757E-01
  4.711892E-01
  4.719013E-01
  4.702190E-01
  4.693571E-01
  4.668664E-01
  4.663180E-01
  4.651493E-01
  4.663734E-01
  4.666760E-01
  4.684932E-01
  4.683981E-01
  4.692153E-01
  4.681660E-01
  4.686094E-01
  4.679043E-01
  4.691063E-01
  4.690257E-01
  4.702385E-01
  4.694073E-01
  4.693751E-01
  4.673505E-01
  4.667176E-01
  4.649439E-01
  4.652747E-01
  4.647465E-01
  4.661346E-01
  4.662003E-01
  4.677149E-01
  4.676081E-01
  4.688196E-01
  4.683429E-01
  4.691088E-01
  4.681438E-01
  4.685252E-01
  4.674834E-01
  4.682069E-01
  4.678211E-01
  4.692057E-01
  4.691231E-01
  4.702211E-01
  4.692701E-01
  4.691541E-01
  4.670127E-01
  4.661121E-01
  4.638762E-01
  4.636693E-01
  4.655207E-01
  4.662208E-01
  4.660403E-01
  4.676355E-01
  4.678170E-01
  4.691090E-01
  4.685613E-01
  4.691377E-01
  4.682248E-01
  4.688121E-01
  4.680349E-01
  4.685988E-01
  4.675840E-01
  4.679429E-01
  4.671226E-01
  4.682481E-01
  4.685340E-01
  4.705312E-01
  4.708643E-01
  4.718658E-01
  4.705031E-01
  4.698688E-01
  4.677030E-01
  4.674594E-01
  4.666401E-01
  4.680176E-01
  4.683634E-01
  4.700505E-01
  4.699232E-01
  4.707482E-01
  4.697893E-01
  4.700418E-01
  4.687869E-01
  4.689470E-01
  4.677472E-01
  4.680748E-01
  4.670868E-01
  4.675621E-01
  4.665877E-01
  4.669955E-01
  4.660326E-01
  4.666704E-01
  4.661415E-01
  4.672384E-01
  4.669807E-01
  4.680679E-01
  4.675901E-01
  4.683901E-01
  4.676570E-01
  4.682670E-01
  4.674485E-01
  4.681702E-01
  4.677342E-01
  4.690275E-01
  4.690779E-01
  4.704544E-01
  4.700614E-01
  4.706507E-01
  4.694846E-01
  4.695814E-01
  4.682108E-01
  4.682157E-01
  4.667407E-01
  4.667165E-01
  4.634628E-01
  4.648146E-01
  4.651281E-01
  4.671241E-01
  4.675699E-01
  4.692034E-01
  4.689329E-01
  4.697199E-01
  4.686911E-01
  4.689364E-01
  4.676040E-01
  4.677621E-01
  4.665744E-01
  4.671694E-01
  4.667308E-01
  4.682637E-01
  4.686641E-01
  4.705849E-01
  4.706677E-01
  4.715424E-01
  4.701056E-01
  4.694641E-01
  4.670614E-01
  4.664016E-01
  4.649645E-01
  4.658499E-01
  4.658458E-01
  4.674213E-01
  4.671474E-01
  4.678141E-01
  4.666456E-01
  4.670092E-01
  4.662837E-01
  4.674989E-01
  4.674383E-01
  4.686527E-01
  4.678448E-01
  4.679156E-01
  4.661349E-01
  4.658668E-01
  4.645032E-01
  4.651638E-01
  4.648071E-01
  4.661804E-01
  4.660962E-01
  4.673803E-01
  4.670199E-01
  4.679730E-01
  4.672686E-01
  4.678713E-01
  4.668663E-01
  4.673461E-01
  4.665242E-01
  4.675087E-01
  4.673516E-01
  4.688665E-01
  4.688113E-01
  4.698517E-01
  4.688249E-01
  4.686819E-01
  4.666407E-01
  4.659841E-01
  4.640929E-01
  4.641995E-01
  4.672468E-01
  4.677572E-01
  4.672247E-01
  4.679821E-01
  4.675964E-01
  4.682296E-01
  4.674805E-01
  4.677199E-01
  4.667673E-01
  4.670619E-01
  4.663111E-01
  4.667866E-01
  4.661405E-01
  4.667637E-01
  4.665020E-01
  4.678227E-01
  4.683953E-01
  4.702941E-01
  4.707799E-01
  4.717561E-01
  4.706988E-01
  4.700561E-01
  4.679327E-01
  4.671799E-01
  4.658776E-01
  4.664485E-01
  4.663810E-01
  4.676551E-01
  4.676561E-01
  4.685652E-01
  4.680682E-01
  4.685448E-01
  4.677197E-01
  4.679383E-01
  4.669287E-01
  4.670957E-01
  4.662094E-01
  4.666320E-01
  4.660283E-01
  4.666806E-01
  4.662562E-01
  4.670847E-01
  4.668350E-01
  4.677499E-01
  4.673843E-01
  4.679500E-01
  4.671059E-01
  4.672503E-01
  4.662057E-01
  4.664457E-01
  4.657865E-01
  4.666382E-01
  4.666847E-01
  4.681144E-01
  4.683484E-01
  4.694161E-01
  4.688315E-01
  4.689754E-01
  4.677873E-01
  4.678853E-01
  4.671124E-01
  4.677432E-01
  4.672825E-01
  4.678965E-01
  4.660919E-01
  4.669695E-01
  4.670431E-01
  4.677047E-01
  4.676225E-01
  4.681695E-01
  4.679013E-01
  4.681092E-01
  4.673820E-01
  4.671492E-01
  4.661724E-01
  4.660176E-01
  4.655000E-01
  4.661281E-01
  4.665432E-01
  4.680031E-01
  4.689079E-01
  4.703675E-01
  4.707538E-01
  4.712381E-01
  4.703192E-01
  4.693888E-01
  4.672914E-01
  4.658217E-01
  4.640848E-01
  4.637801E-01
  4.635297E-01
  4.644024E-01
  4.646200E-01
  4.653215E-01
  4.651804E-01
  4.658128E-01
  4.660399E-01
  4.672020E-01
  4.676441E-01
  4.683887E-01
  4.678543E-01
  4.674893E-01
  4.662289E-01
  4.658325E-01
  4.651896E-01
  4.657182E-01
  4.658757E-01
  4.667699E-01
  4.667829E-01
  4.671659E-01
  4.665591E-01
  4.664652E-01
  4.656824E-01
  4.657443E-01
  4.653665E-01
  4.659318E-01
  4.659954E-01
  4.668209E-01
  4.669087E-01
  4.675238E-01
  4.672047E-01
  4.672874E-01
  4.664309E-01
  4.661424E-01
  4.652508E-01
  4.653309E-01
  4.650991E-01
  4.658693E-01
  4.703789E-01
  4.700659E-01
  4.694792E-01
  4.685470E-01
  4.678412E-01
  4.670857E-01
  4.666258E-01
  4.660714E-01
  4.657762E-01
  4.654045E-01
  4.653417E-01
  4.652528E-01
  4.655250E-01
  4.658420E-01
  4.665986E-01
  4.674300E-01
  4.686069E-01
  4.695924E-01
  4.705008E-01
  4.707303E-01
  4.704825E-01
  4.694114E-01
  4.680866E-01
  4.665081E-01
  4.654078E-01
  4.646725E-01
  4.647010E-01
  4.650074E-01
  4.657603E-01
  4.664416E-01
  4.672934E-01
  4.678443E-01
  4.683194E-01
  4.682532E-01
  4.680035E-01
  4.673539E-01
  4.668885E-01
  4.664456E-01
  4.664679E-01
  4.665715E-01
  4.670353E-01
  4.674105E-01
  4.679432E-01
  4.681191E-01
  4.681213E-01
  4.674891E-01
  4.666466E-01
  4.654902E-01
  4.647335E-01
  4.643267E-01
  4.647606E-01
  4.655811E-01
  4.668505E-01
  4.678100E-01
  4.684467E-01
  4.682063E-01
  4.675268E-01
  4.664033E-01
  4.656899E-01
  4.654505E-01
  4.661925E-01
  4.673600E-01
  4.688611E-01
  4.698504E-01
  4.691309E-01
  4.688797E-01
  4.691065E-01
  4.679699E-01
  4.678540E-01
  4.668863E-01
  4.671406E-01
  4.663971E-01
  4.665725E-01
  4.655522E-01
  4.655277E-01
  4.646511E-01
  4.652121E-01
  4.652238E-01
  4.666575E-01
  4.671964E-01
  4.686535E-01
  4.687961E-01
  4.696592E-01
  4.691709E-01
  4.693560E-01
  4.680536E-01
  4.673292E-01
  4.653021E-01
  4.644191E-01
  4.629843E-01
  4.632400E-01
  4.630016E-01
  4.640773E-01
  4.641928E-01
  4.654061E-01
  4.657468E-01
  4.673200E-01
  4.678800E-01
  4.691636E-01
  4.687899E-01
  4.687549E-01
  4.672087E-01
  4.666451E-01
  4.654052E-01
  4.657844E-01
  4.656600E-01
  4.668287E-01
  4.668459E-01
  4.674762E-01
  4.665272E-01
  4.661928E-01
  4.647146E-01
  4.645437E-01
  4.638821E-01
  4.648519E-01
  4.651852E-01
  4.666173E-01
  4.667547E-01
  4.674983E-01
  4.667839E-01
  4.668183E-01
  4.657061E-01
  4.657009E-01
  4.649098E-01
  4.655684E-01
  4.656783E-01
  4.672103E-01
  4.677955E-01
  4.726705E-01
  4.710788E-01
  4.708744E-01
  4.683302E-01
  4.679086E-01
  4.657129E-01
  4.659005E-01
  4.643163E-01
  4.650000E-01
  4.638051E-01
  4.648365E-01
  4.640013E-01
  4.654094E-01
  4.649204E-01
  4.665702E-01
  4.661642E-01
  4.677428E-01
  4.671719E-01
  4.685539E-01
  4.677558E-01
  4.688169E-01
  4.675516E-01
  4.680532E-01
  4.663165E-01
  4.666462E-01
  4.651403E-01
  4.660317E-01
  4.652350E-01
  4.668126E-01
  4.665822E-01
  4.685359E-01
  4.683762E-01
  4.699581E-01
  4.689606E-01
  4.694487E-01
  4.675015E-01
  4.675627E-01
  4.658477E-01
  4.666390E-01
  4.658302E-01
  4.674116E-01
  4.670990E-01
  4.687758E-01
  4.680708E-01
  4.688516E-01
  4.669235E-01
  4.665674E-01
  4.640974E-01
  4.641302E-01
  4.629298E-01
  4.646731E-01
  4.649992E-01
  4.675542E-01
  4.677425E-01
  4.693283E-01
  4.681164E-01
  4.684069E-01
  4.665002E-01
  4.669811E-01
  4.661070E-01
  4.680819E-01
  4.685682E-01
  4.711943E-01
  4.713168E-01
  4.701744E-01
  4.687772E-01
  4.695903E-01
  4.673386E-01
  4.677727E-01
  4.656823E-01
  4.665703E-01
  4.648777E-01
  4.659052E-01
  4.641492E-01
  4.651506E-01
  4.636429E-01
  4.652216E-01
  4.644281E-01
  4.665180E-01
  4.657638E-01
  4.674222E-01
  4.660589E-01
  4.673143E-01
  4.659367E-01
  4.674067E-01
  4.661155E-01
  4.673107E-01
  4.654949E-01
  4.662873E-01
  4.645072E-01
  4.657731E-01
  4.646106E-01
  4.663278E-01
  4.653827E-01
  4.672620E-01
  4.666051E-01
  4.688368E-01
  4.682833E-01
  4.700520E-01
  4.684382E-01
  4.689011E-01
  4.662969E-01
  4.665411E-01
  4.645963E-01
  4.660863E-01
  4.654302E-01
  4.677012E-01
  4.669902E-01
  4.683961E-01
  4.663815E-01
  4.666124E-01
  4.640714E-01
  4.646630E-01
  4.632144E-01
  4.651591E-01
  4.647790E-01
  4.671622E-01
  4.665936E-01
  4.684470E-01
  4.673492E-01
  4.688520E-01
  4.675433E-01
  4.688573E-01
  4.673700E-01
  4.686547E-01
  4.674297E-01
  4.692106E-01
  4.684091E-01
  4.723266E-01
  4.700983E-01
  4.705111E-01
  4.676358E-01
  4.678222E-01
  4.651177E-01
  4.657372E-01
  4.635756E-01
  4.647470E-01
  4.631098E-01
  4.647730E-01
  4.635779E-01
  4.655781E-01
  4.645320E-01
  4.664352E-01
  4.650760E-01
  4.665933E-01
  4.649807E-01
  4.665272E-01
  4.652164E-01
  4.671615E-01
  4.661189E-01
  4.680771E-01
  4.668409E-01
  4.685570E-01
  4.671666E-01
  4.688538E-01
  4.675297E-01
  4.693548E-01
  4.682323E-01
  4.702552E-01
  4.691463E-01
  4.707856E-01
  4.688408E-01
  4.694281E-01
  4.666640E-01
  4.670648E-01
  4.648536E-01
  4.663209E-01
  4.653022E-01
  4.677478E-01
  4.672851E-01
  4.697451E-01
  4.686879E-01
  4.699947E-01
  4.674992E-01
  4.675726E-01
  4.645592E-01
  4.650834E-01
  4.633291E-01
  4.654342E-01
  4.650337E-01
  4.679069E-01
  4.676187E-01
  4.701004E-01
  4.691583E-01
  4.709545E-01
  4.694759E-01
  4.710049E-01
  4.695706E-01
  4.713886E-01
  4.703055E-01
  4.722908E-01
  4.709896E-01
  4.687391E-01
  4.675448E-01
  4.686699E-01
  4.670445E-01
  4.678018E-01
  4.660957E-01
  4.670076E-01
  4.654731E-01
  4.664038E-01
  4.647571E-01
  4.656333E-01
  4.641870E-01
  4.655525E-01
  4.646910E-01
  4.664181E-01
  4.654684E-01
  4.667082E-01
  4.652004E-01
  4.662015E-01
  4.649389E-01
  4.664809E-01
  4.656663E-01
  4.672882E-01
  4.662294E-01
  4.675672E-01
  4.664284E-01
  4.678784E-01
  4.668256E-01
  4.681613E-01
  4.668600E-01
  4.680654E-01
  4.669355E-01
  4.685176E-01
  4.676298E-01
  4.689932E-01
  4.673805E-01
  4.678185E-01
  4.655687E-01
  4.660499E-01
  4.646016E-01
  4.663578E-01
  4.661361E-01
  4.685445E-01
  4.681099E-01
  4.695252E-01
  4.677460E-01
  4.680368E-01
  4.657921E-01
  4.663795E-01