# vtk DataFile Version 2.0
title
ASCII
DATASET STRUCTURED_GRID
DIMENSIONS   64   64    1
POINTS   4096  float
  0.000000E+00  0.000000E+00  0.000000E+00
  0.000000E+00  3.906250E-01  0.000000E+00
  0.000000E+00  7.812500E-01  0.000000E+00
  0.000000E+00  1.171875E+00  0.000000E+00
  0.000000E+00  1.562500E+00  0.000000E+00
  0.000000E+00  1.953125E+00  0.000000E+00
  0.000000E+00  2.343750E+00  0.000000E+00
  0.000000E+00  2.734375E+00  0.000000E+00
  0.000000E+00  3.125000E+00  0.000000E+00
  0.000000E+00  3.515625E+00  0.000000E+00
  0.000000E+00  3.906250E+00  0.000000E+00
  0.000000E+00  4.296875E+00  0.000000E+00
  0.000000E+00  4.687500E+00  0.000000E+00
  0.000000E+00  5.078125E+00  0.000000E+00
  0.000000E+00  5.468750E+00  0.000000E+00
  0.000000E+00  5.859375E+00  0.000000E+00
  0.000000E+00  6.250000E+00  0.000000E+00
  0.000000E+00  6.640625E+00  0.000000E+00
  0.000000E+00  7.031250E+00  0.000000E+00
  0.000000E+00  7.421875E+00  0.000000E+00
  0.000000E+00  7.812500E+00  0.000000E+00
  0.000000E+00  8.203125E+00  0.000000E+00
  0.000000E+00  8.593750E+00  0.000000E+00
  0.000000E+00  8.984375E+00  0.000000E+00
  0.000000E+00  9.375000E+00  0.000000E+00
  0.000000E+00  9.765625E+00  0.000000E+00
  0.000000E+00  1.015625E+01  0.000000E+00
  0.000000E+00  1.054688E+01  0.000000E+00
  0.000000E+00  1.093750E+01  0.000000E+00
  0.000000E+00  1.132812E+01  0.000000E+00
  0.000000E+00  1.171875E+01  0.000000E+00
  0.000000E+00  1.210938E+01  0.000000E+00
  0.000000E+00  1.250000E+01  0.000000E+00
  0.000000E+00  1.289062E+01  0.000000E+00
  0.000000E+00  1.328125E+01  0.000000E+00
  0.000000E+00  1.367188E+01  0.000000E+00
  0.000000E+00  1.406250E+01  0.000000E+00
  0.000000E+00  1.445312E+01  0.000000E+00
  0.000000E+00  1.484375E+01  0.000000E+00
  0.000000E+00  1.523438E+01  0.000000E+00
  0.000000E+00  1.562500E+01  0.000000E+00
  0.000000E+00  1.601562E+01  0.000000E+00
  0.000000E+00  1.640625E+01  0.000000E+00
  0.000000E+00  1.679688E+01  0.000000E+00
  0.000000E+00  1.718750E+01  0.000000E+00
  0.000000E+00  1.757812E+01  0.000000E+00
  0.000000E+00  1.796875E+01  0.000000E+00
  0.000000E+00  1.835938E+01  0.000000E+00
  0.000000E+00  1.875000E+01  0.000000E+00
  0.000000E+00  1.914062E+01  0.000000E+00
  0.000000E+00  1.953125E+01  0.000000E+00
  0.000000E+00  1.992188E+01  0.000000E+00
  0.000000E+00  2.031250E+01  0.000000E+00
  0.000000E+00  2.070312E+01  0.000000E+00
  0.000000E+00  2.109375E+01  0.000000E+00
  0.000000E+00  2.148438E+01  0.000000E+00
  0.000000E+00  2.187500E+01  0.000000E+00
  0.000000E+00  2.226562E+01  0.000000E+00
  0.000000E+00  2.265625E+01  0.000000E+00
  0.000000E+00  2.304688E+01  0.000000E+00
  0.000000E+00  2.343750E+01  0.000000E+00
  0.000000E+00  2.382812E+01  0.000000E+00
  0.000000E+00  2.421875E+01  0.000000E+00
  0.000000E+00  2.460938E+01  0.000000E+00
  3.906250E-01  0.000000E+00  0.000000E+00
  3.906250E-01  3.906250E-01  0.000000E+00
  3.906250E-01  7.812500E-01  0.000000E+00
  3.906250E-01  1.171875E+00  0.000000E+00
  3.906250E-01  1.562500E+00  0.000000E+00
  3.906250E-01  1.953125E+00  0.000000E+00
  3.906250E-01  2.343750E+00  0.000000E+00
  3.906250E-01  2.734375E+00  0.000000E+00
  3.906250E-01  3.125000E+00  0.000000E+00
  3.906250E-01  3.515625E+00  0.000000E+00
  3.906250E-01  3.906250E+00  0.000000E+00
  3.906250E-01  4.296875E+00  0.000000E+00
  3.906250E-01  4.687500E+00  0.000000E+00
  3.906250E-01  5.078125E+00  0.000000E+00
  3.906250E-01  5.468750E+00  0.000000E+00
  3.906250E-01  5.859375E+00  0.000000E+00
  3.906250E-01  6.250000E+00  0.000000E+00
  3.906250E-01  6.640625E+00  0.000000E+00
  3.906250E-01  7.031250E+00  0.000000E+00
  3.906250E-01  7.421875E+00  0.000000E+00
  3.906250E-01  7.812500E+00  0.000000E+00
  3.906250E-01  8.203125E+00  0.000000E+00
  3.906250E-01  8.593750E+00  0.000000E+00
  3.906250E-01  8.984375E+00  0.000000E+00
  3.906250E-01  9.375000E+00  0.000000E+00
  3.906250E-01  9.765625E+00  0.000000E+00
  3.906250E-01  1.015625E+01  0.000000E+00
  3.906250E-01  1.054688E+01  0.000000E+00
  3.906250E-01  1.093750E+01  0.000000E+00
  3.906250E-01  1.132812E+01  0.000000E+00
  3.906250E-01  1.171875E+01  0.000000E+00
  3.906250E-01  1.210938E+01  0.000000E+00
  3.906250E-01  1.250000E+01  0.000000E+00
  3.906250E-01  1.289062E+01  0.000000E+00
  3.906250E-01  1.328125E+01  0.000000E+00
  3.906250E-01  1.367188E+01  0.000000E+00
  3.906250E-01  1.406250E+01  0.000000E+00
  3.906250E-01  1.445312E+01  0.000000E+00
  3.906250E-01  1.484375E+01  0.000000E+00
  3.906250E-01  1.523438E+01  0.000000E+00
  3.906250E-01  1.562500E+01  0.000000E+00
  3.906250E-01  1.601562E+01  0.000000E+00
  3.906250E-01  1.640625E+01  0.000000E+00
  3.906250E-01  1.679688E+01  0.000000E+00
  3.906250E-01  1.718750E+01  0.000000E+00
  3.906250E-01  1.757812E+01  0.000000E+00
  3.906250E-01  1.796875E+01  0.000000E+00
  3.906250E-01  1.835938E+01  0.000000E+00
  3.906250E-01  1.875000E+01  0.000000E+00
  3.906250E-01  1.914062E+01  0.000000E+00
  3.906250E-01  1.953125E+01  0.000000E+00
  3.906250E-01  1.992188E+01  0.000000E+00
  3.906250E-01  2.031250E+01  0.000000E+00
  3.906250E-01  2.070312E+01  0.000000E+00
  3.906250E-01  2.109375E+01  0.000000E+00
  3.906250E-01  2.148438E+01  0.000000E+00
  3.906250E-01  2.187500E+01  0.000000E+00
  3.906250E-01  2.226562E+01  0.000000E+00
  3.906250E-01  2.265625E+01  0.000000E+00
  3.906250E-01  2.304688E+01  0.000000E+00
  3.906250E-01  2.343750E+01  0.000000E+00
  3.906250E-01  2.382812E+01  0.000000E+00
  3.906250E-01  2.421875E+01  0.000000E+00
  3.906250E-01  2.460938E+01  0.000000E+00
  7.812500E-01  0.000000E+00  0.000000E+00
  7.812500E-01  3.906250E-01  0.000000E+00
  7.812500E-01  7.812500E-01  0.000000E+00
  7.812500E-01  1.171875E+00  0.000000E+00
  7.812500E-01  1.562500E+00  0.000000E+00
  7.812500E-01  1.953125E+00  0.000000E+00
  7.812500E-01  2.343750E+00  0.000000E+00
  7.812500E-01  2.734375E+00  0.000000E+00
  7.812500E-01  3.125000E+00  0.000000E+00
  7.812500E-01  3.515625E+00  0.000000E+00
  7.812500E-01  3.906250E+00  0.000000E+00
  7.812500E-01  4.296875E+00  0.000000E+00
  7.812500E-01  4.687500E+00  0.000000E+00
  7.812500E-01  5.078125E+00  0.000000E+00
  7.812500E-01  5.468750E+00  0.000000E+00
  7.812500E-01  5.859375E+00  0.000000E+00
  7.812500E-01  6.250000E+00  0.000000E+00
  7.812500E-01  6.640625E+00  0.000000E+00
  7.812500E-01  7.031250E+00  0.000000E+00
  7.812500E-01  7.421875E+00  0.000000E+00
  7.812500E-01  7.812500E+00  0.000000E+00
  7.812500E-01  8.203125E+00  0.000000E+00
  7.812500E-01  8.593750E+00  0.000000E+00
  7.812500E-01  8.984375E+00  0.000000E+00
  7.812500E-01  9.375000E+00  0.000000E+00
  7.812500E-01  9.765625E+00  0.000000E+00
  7.812500E-01  1.015625E+01  0.000000E+00
  7.812500E-01  1.054688E+01  0.000000E+00
  7.812500E-01  1.093750E+01  0.000000E+00
  7.812500E-01  1.132812E+01  0.000000E+00
  7.812500E-01  1.171875E+01  0.000000E+00
  7.812500E-01  1.210938E+01  0.000000E+00
  7.812500E-01  1.250000E+01  0.000000E+00
  7.812500E-01  1.289062E+01  0.000000E+00
  7.812500E-01  1.328125E+01  0.000000E+00
  7.812500E-01  1.367188E+01  0.000000E+00
  7.812500E-01  1.406250E+01  0.000000E+00
  7.812500E-01  1.445312E+01  0.000000E+00
  7.812500E-01  1.484375E+01  0.000000E+00
  7.812500E-01  1.523438E+01  0.000000E+00
  7.812500E-01  1.562500E+01  0.000000E+00
  7.812500E-01  1.601562E+01  0.000000E+00
  7.812500E-01  1.640625E+01  0.000000E+00
  7.812500E-01  1.679688E+01  0.000000E+00
  7.812500E-01  1.718750E+01  0.000000E+00
  7.812500E-01  1.757812E+01  0.000000E+00
  7.812500E-01  1.796875E+01  0.000000E+00
  7.812500E-01  1.835938E+01  0.000000E+00
  7.812500E-01  1.875000E+01  0.000000E+00
  7.812500E-01  1.914062E+01  0.000000E+00
  7.812500E-01  1.953125E+01  0.000000E+00
  7.812500E-01  1.992188E+01  0.000000E+00
  7.812500E-01  2.031250E+01  0.000000E+00
  7.812500E-01  2.070312E+01  0.000000E+00
  7.812500E-01  2.109375E+01  0.000000E+00
  7.812500E-01  2.148438E+01  0.000000E+00
  7.812500E-01  2.187500E+01  0.000000E+00
  7.812500E-01  2.226562E+01  0.000000E+00
  7.812500E-01  2.265625E+01  0.000000E+00
  7.812500E-01  2.304688E+01  0.000000E+00
  7.812500E-01  2.343750E+01  0.000000E+00
  7.812500E-01  2.382812E+01  0.000000E+00
  7.812500E-01  2.421875E+01  0.000000E+00
  7.812500E-01  2.460938E+01  0.000000E+00
  1.171875E+00  0.000000E+00  0.000000E+00
  1.171875E+00  3.906250E-01  0.000000E+00
  1.171875E+00  7.812500E-01  0.000000E+00
  1.171875E+00  1.171875E+00  0.000000E+00
  1.171875E+00  1.562500E+00  0.000000E+00
  1.171875E+00  1.953125E+00  0.000000E+00
  1.171875E+00  2.343750E+00  0.000000E+00
  1.171875E+00  2.734375E+00  0.000000E+00
  1.171875E+00  3.125000E+00  0.000000E+00
  1.171875E+00  3.515625E+00  0.000000E+00
  1.171875E+00  3.906250E+00  0.000000E+00
  1.171875E+00  4.296875E+00  0.000000E+00
  1.171875E+00  4.687500E+00  0.000000E+00
  1.171875E+00  5.078125E+00  0.000000E+00
  1.171875E+00  5.468750E+00  0.000000E+00
  1.171875E+00  5.859375E+00  0.000000E+00
  1.171875E+00  6.250000E+00  0.000000E+00
  1.171875E+00  6.640625E+00  0.000000E+00
  1.171875E+00  7.031250E+00  0.000000E+00
  1.171875E+00  7.421875E+00  0.000000E+00
  1.171875E+00  7.812500E+00  0.000000E+00
  1.171875E+00  8.203125E+00  0.000000E+00
  1.171875E+00  8.593750E+00  0.000000E+00
  1.171875E+00  8.984375E+00  0.000000E+00
  1.171875E+00  9.375000E+00  0.000000E+00
  1.171875E+00  9.765625E+00  0.000000E+00
  1.171875E+00  1.015625E+01  0.000000E+00
  1.171875E+00  1.054688E+01  0.000000E+00
  1.171875E+00  1.093750E+01  0.000000E+00
  1.171875E+00  1.132812E+01  0.000000E+00
  1.171875E+00  1.171875E+01  0.000000E+00
  1.171875E+00  1.210938E+01  0.000000E+00
  1.171875E+00  1.250000E+01  0.000000E+00
  1.171875E+00  1.289062E+01  0.000000E+00
  1.171875E+00  1.328125E+01  0.000000E+00
  1.171875E+00  1.367188E+01  0.000000E+00
  1.171875E+00  1.406250E+01  0.000000E+00
  1.171875E+00  1.445312E+01  0.000000E+00
[...]
POINT_DATA   4096
SCALARS CON  float  1
LOOKUP_TABLE default
  4.694953E-01
  4.686340E-01
  4.713121E-01
  4.698096E-01
  4.715319E-01
  4.691965E-01
  4.705034E-01
  4.682082E-01
  4.698286E-01
  4.678664E-01
  4.696754E-01
  4.677625E-01
  4.696157E-01
  4.678846E-01
  4.700929E-01
  4.687790E-01
  4.712624E-01
  4.698934E-01
  4.719162E-01
  4.697572E-01
  4.708584E-01
  4.678922E-01
  4.685147E-01
  4.655183E-01
  4.665521E-01
  4.642770E-01
  4.661255E-01
  4.645297E-01
  4.667677E-01
  4.652519E-01
  4.673756E-01
  4.657309E-01
  4.678492E-01
  4.663380E-01
  4.686135E-01
  4.671091E-01
  4.691163E-01
  4.670723E-01
  4.684071E-01
  4.657698E-01
  4.667883E-01
  4.642289E-01
  4.657332E-01
  4.639870E-01
  4.664743E-01
  4.656644E-01
  4.687960E-01
  4.681256E-01
  4.708025E-01
  4.691970E-01
  4.707814E-01
  4.683564E-01
  4.697463E-01
  4.678400E-01
  4.702104E-01
  4.692482E-01
  4.720124E-01
  4.706223E-01
  4.722567E-01
  4.695024E-01
  4.701366E-01
  4.671907E-01
  4.685239E-01
  4.668559E-01
  4.713833E-01
  4.709341E-01
  4.724195E-01
  4.709932E-01
  4.713328E-01
  4.690517E-01
  4.691467E-01
  4.672757E-01
  4.682046E-01
  4.672173E-01
  4.687544E-01
  4.679725E-01
  4.694138E-01
  4.684693E-01
  4.698884E-01
  4.691155E-01
  4.707754E-01
  4.700925E-01
  4.715115E-01
  4.702248E-01
  4.708181E-01
  4.687349E-01
  4.688133E-01
  4.666539E-01
  4.671096E-01
  4.656646E-01
  4.669727E-01
  4.662961E-01
  4.680996E-01
  4.675357E-01
  4.690690E-01
  4.679657E-01
  4.688848E-01
  4.672986E-01
  4.680040E-01
  4.664860E-01
  4.674290E-01
  4.661413E-01
  4.671592E-01
  4.657510E-01
  4.665451E-01
  4.649901E-01
  4.658937E-01
  4.647888E-01
  4.664173E-01
  4.661049E-01
  4.683191E-01
  4.681596E-01
  4.700263E-01
  4.691635E-01
  4.702869E-01
  4.689936E-01
  4.702158E-01
  4.695053E-01
  4.714870E-01
  4.712831E-01
  4.731817E-01
  4.722400E-01
  4.729987E-01
  4.709719E-01
  4.711486E-01
  4.692769E-01
  4.702616E-01
  4.694892E-01
  4.679366E-01
  4.689429E-01
  4.702814E-01
  4.705135E-01
  4.706069E-01
  4.696846E-01
  4.691512E-01
  4.682645E-01
  4.682532E-01
  4.680319E-01
  4.685219E-01
  4.685140E-01
  4.690082E-01
  4.689782E-01
  4.695674E-01
  4.697541E-01
  4.705445E-01
  4.707197E-01
  4.711433E-01
  4.705920E-01
  4.700766E-01
  4.686206E-01
  4.674916E-01
  4.658897E-01
  4.651211E-01
  4.642754E-01
  4.644398E-01
  4.644555E-01
  4.652204E-01
  4.655091E-01
  4.662824E-01
  4.664528E-01
  4.671072E-01
  4.671997E-01
  4.677586E-01
  4.676280E-01
  4.677581E-01
  4.670142E-01
  4.664799E-01
  4.652214E-01
  4.645128E-01
  4.635306E-01
  4.635419E-01
  4.635981E-01
  4.647489E-01
  4.657794E-01
  4.674843E-01
  4.684803E-01
  4.695572E-01
  4.695312E-01
  4.695615E-01
  4.688791E-01
  4.689245E-01
  4.689238E-01
  4.699895E-01
  4.708175E-01
  4.720248E-01
  4.720936E-01
  4.718382E-01
  4.702865E-01
  4.689141E-01
  4.672285E-01
  4.667821E-01
  4.667164E-01
  4.694012E-01
  4.708261E-01
  4.707704E-01
  4.711189E-01
  4.697274E-01
  4.690115E-01
  4.672417E-01
  4.669532E-01
  4.661988E-01
  4.670771E-01
  4.672031E-01
  4.684401E-01
  4.684535E-01
  4.693696E-01
  4.691498E-01
  4.700730E-01
  4.700326E-01
  4.710775E-01
  4.708597E-01
  4.713239E-01
  4.702218E-01
  4.697571E-01
  4.679799E-01
  4.673071E-01
  4.658448E-01
  4.659083E-01
  4.653976E-01
  4.663869E-01
  4.665602E-01
  4.678478E-01
  4.678940E-01
  4.687066E-01
  4.681063E-01
  4.683181E-01
  4.673378E-01
  4.674519E-01
  4.665841E-01
  4.668649E-01
  4.660737E-01
  4.662945E-01
  4.653877E-01
  4.655992E-01
  4.649340E-01
  4.656733E-01
  4.657093E-01
  4.670978E-01
  4.674879E-01
  4.687872E-01
  4.686715E-01
  4.692588E-01
  4.685435E-01
  4.689327E-01
  4.685382E-01
  4.696353E-01
  4.699934E-01
  4.714830E-01
  4.715997E-01
  4.722149E-01
  4.711161E-01
  4.706381E-01
  4.690039E-01
  4.687672E-01
  4.680584E-01
  4.690608E-01
  4.658522E-01
  4.684142E-01
  4.682855E-01
  4.700818E-01
  4.686863E-01
  4.692753E-01
  4.672030E-01
  4.678295E-01
  4.663618E-01
  4.678017E-01
  4.669933E-01
  4.687477E-01
  4.679488E-01
  4.696018E-01
  4.687869E-01
  4.705747E-01
  4.699390E-01
  4.717370E-01
  4.707498E-01
  4.717796E-01
  4.697370E-01
  4.696965E-01
  4.668791E-01
  4.665888E-01
  4.641122E-01
  4.646389E-01
  4.632129E-01
  4.647476E-01
  4.640758E-01
  4.660266E-01
  4.654771E-01
  4.673750E-01
  4.667093E-01
  4.684697E-01
  4.676050E-01
  4.690255E-01
  4.676336E-01
  4.683844E-01
  4.663255E-01
  4.666121E-01
  4.644681E-01
  4.651280E-01
  4.637614E-01
  4.654256E-01
  4.650393E-01
  4.674040E-01
  4.672477E-01
  4.693037E-01
  4.683892E-01
  4.694786E-01
  4.677231E-01
  4.684147E-01
  4.668746E-01
  4.683215E-01
  4.677551E-01
  4.699357E-01
  4.694611E-01
  4.709376E-01
  4.691559E-01
  4.692066E-01
  4.664618E-01
  4.664395E-01
  4.645887E-01
  4.661066E-01
  4.675325E-01
  4.699305E-01
  4.687642E-01
  4.702603E-01
  4.679425E-01
  4.684904E-01
  4.658134E-01
  4.667349E-01
  4.649987E-01
  4.670362E-01
  4.661683E-01
  4.685773E-01
  4.676126E-01
  4.697098E-01
  4.685219E-01
  4.706488E-01
  4.696735E-01
  4.719419E-01
  4.707609E-01
  4.723510E-01
  4.701303E-01
  4.706236E-01
  4.676062E-01
  4.678582E-01
  4.652161E-01
  4.663284E-01
  4.647796E-01
  4.669394E-01
  4.661615E-01
  4.686765E-01
  4.678089E-01
  4.698710E-01
  4.683584E-01
  4.697921E-01
  4.678407E-01
  4.690966E-01
  4.671773E-01
  4.685451E-01
  4.666938E-01
  4.680460E-01
  4.661616E-01
  4.675851E-01
  4.659648E-01
  4.678281E-01
  4.666891E-01
  4.688804E-01
  4.677558E-01
  4.696061E-01
  4.678939E-01
  4.691364E-01
  4.670528E-01
  4.683368E-01
  4.667189E-01
  4.687182E-01
  4.677648E-01
  4.700765E-01
  4.689155E-01
  4.705457E-01
  4.684773E-01
  4.693247E-01
  4.669088E-01
  4.679912E-01
  4.663179E-01
  4.683758E-01
  4.643945E-01
  4.672393E-01
  4.665394E-01
  4.689778E-01
  4.673936E-01
  4.688857E-01
  4.666829E-01
  4.680746E-01
  4.662205E-01
  4.681558E-01
  4.667612E-01
  4.689200E-01
  4.675475E-01
  4.696908E-01
  4.684243E-01
  4.708253E-01
  4.698288E-01
  4.722697E-01
  4.708733E-01
  4.724265E-01
  4.698218E-01
  4.701771E-01
  4.667507E-01
  4.669146E-01
  4.639728E-01
  4.651270E-01
  4.633741E-01
  4.655979E-01
  4.645821E-01
  4.671580E-01
  4.661971E-01
  4.686791E-01
  4.675901E-01
  4.699329E-01
  4.686286E-01
  4.705880E-01
  4.686948E-01
  4.699309E-01
  4.673557E-01
  4.681667E-01
  4.655871E-01
  4.668519E-01
  4.650710E-01
  4.672527E-01
  4.662447E-01
  4.688409E-01
  4.677829E-01
  4.698919E-01
  4.680593E-01
  4.693399E-01
  4.668833E-01
  4.679521E-01
  4.657792E-01
  4.675377E-01
  4.662059E-01
  4.686150E-01
  4.674429E-01
  4.693950E-01
  4.672722E-01
  4.681248E-01
  4.651939E-01
  4.658844E-01
  4.635509E-01
  4.654100E-01
  4.665171E-01
  4.685917E-01
  4.674050E-01
  4.690887E-01
  4.672758E-01
  4.683641E-01
  4.662570E-01
  4.674937E-01
  4.659120E-01
  4.678094E-01
  4.667384E-01
  4.688266E-01
  4.676623E-01
  4.695789E-01
  4.683958E-01
  4.705396E-01
  4.697062E-01
  4.720400E-01
  4.709606E-01
  4.725154E-01
  4.702877E-01
  4.706892E-01
  4.677035E-01
  4.680019E-01
  4.655871E-01
  4.669255E-01
  4.656956E-01
  4.680483E-01
  4.674476E-01
  4.699644E-01
  4.691057E-01
  4.710743E-01
  4.695555E-01
  4.709294E-01
  4.690072E-01
  4.702061E-01
  4.682828E-01
  4.695501E-01
  4.676782E-01
  4.689647E-01
  4.671386E-01
  4.685800E-01
  4.670525E-01
  4.688776E-01
  4.676812E-01
  4.696338E-01
  4.682758E-01
  4.698084E-01
  4.679155E-01
  4.689987E-01
  4.669202E-01
  4.681647E-01
  4.665443E-01
  4.683756E-01
  4.672475E-01
  4.692867E-01
  4.680015E-01
  4.695777E-01
  4.676943E-01
  4.687496E-01
  4.666006E-01
  4.677329E-01
  4.659785E-01
  4.676952E-01
  4.637401E-01
  4.658878E-01
  4.655613E-01
  4.678833E-01
  4.672515E-01
  4.690054E-01
  4.678048E-01
  4.691736E-01
  4.678126E-01
  4.691652E-01
  4.678197E-01
  4.691680E-01
  4.678462E-01
  4.693511E-01
  4.683837E-01
  4.703813E-01
  4.698452E-01
  4.719486E-01
  4.709975E-01
  4.721575E-01
  4.699550E-01
  4.699352E-01
  4.670148E-01
  4.669793E-01
  4.647371E-01
  4.658275E-01
  4.647859E-01
  4.668100E-01
  4.662555E-01
  4.683465E-01
  4.676157E-01
  4.694950E-01
  4.686383E-01
  4.704579E-01
  4.694788E-01
  4.709709E-01
  4.694085E-01
  4.701569E-01
  4.679058E-01
  4.682642E-01
  4.660833E-01
  4.669758E-01
  4.656347E-01
  4.674169E-01
  4.667584E-01
  4.688432E-01
  4.680613E-01
  4.696719E-01
  4.682245E-01
  4.691740E-01
  4.672562E-01
  4.680607E-01
  4.663681E-01
  4.676982E-01
  4.666502E-01
  4.684965E-01
  4.676058E-01
  4.691303E-01
  4.674939E-01
  4.680793E-01
  4.656430E-01
  4.658789E-01
  4.637089E-01
  4.647741E-01
  4.661320E-01
  4.674156E-01
  4.667488E-01
  4.681804E-01
  4.674193E-01
  4.685972E-01
  4.675719E-01
  4.686067E-01
  4.675969E-01
  4.687351E-01
  4.677983E-01
  4.689116E-01
  4.679001E-01
  4.690295E-01
  4.682556E-01
  4.698455E-01
  4.695773E-01
  4.714267E-01
  4.709208E-01
  4.719814E-01
  4.703413E-01
  4.703150E-01
  4.680405E-01
  4.680666E-01
  4.664994E-01
  4.676212E-01
  4.671666E-01
  4.690953E-01
  4.689710E-01
  4.707551E-01
  4.701418E-01
  4.712797E-01
  4.700424E-01
  4.707073E-01
  4.692042E-01
  4.697930E-01
  4.683329E-01
  4.690011E-01
  4.676078E-01
  4.683396E-01
  4.670616E-01
  4.680141E-01
  4.670624E-01
  4.683722E-01
  4.676868E-01
  4.690626E-01
  4.682052E-01
  4.692307E-01
  4.679810E-01
  4.687296E-01
  4.674326E-01
  4.683891E-01
  4.674805E-01
  4.688581E-01
  4.682404E-01
  4.696637E-01
  4.688217E-01
  4.698194E-01
  4.684762E-01
  4.690285E-01
  4.673942E-01
  4.678629E-01
  4.663653E-01
  4.671668E-01
  4.636082E-01
  4.650894E-01
  4.652031E-01
  4.672429E-01
  4.674475E-01
  4.691816E-01
  4.688397E-01
  4.699522E-01
  4.690341E-01
  4.696782E-01
  4.684316E-01
  4.689248E-01
  4.677583E-01
  4.686022E-01
  4.680265E-01
  4.695604E-01
  4.695364E-01
  4.712263E-01
  4.708010E-01
  4.715630E-01
  4.699278E-01
  4.695826E-01
  4.673205E-01
  4.670427E-01
  4.655000E-01
  4.663140E-01
  4.658432E-01
  4.673752E-01
  4.671300E-01
  4.684863E-01
  4.679054E-01
  4.690109E-01
  4.683778E-01
  4.695636E-01
  4.689544E-01
  4.699222E-01
  4.687937E-01
  4.690570E-01
  4.672836E-01
  4.672191E-01
  4.655835E-01
  4.660961E-01
  4.652921E-01
  4.666321E-01
  4.664218E-01
  4.679958E-01
  4.676589E-01
  4.688419E-01
  4.679950E-01
  4.687000E-01
  4.675336E-01
  4.681595E-01
  4.671744E-01
  4.681841E-01
  4.676490E-01
  4.689890E-01
  4.684873E-01
  4.694680E-01
  4.682526E-01
  4.683451E-01
  4.663387E-01
  4.660085E-01
  4.641194E-01
  4.644526E-01
  4.663356E-01
  4.671623E-01
  4.667385E-01
  4.678609E-01
  4.675484E-01
  4.685825E-01
  4.680414E-01
  4.688037E-01
  4.680273E-01
  4.686181E-01
  4.677233E-01
  4.682478E-01
  4.673845E-01
  4.681177E-01
  4.676877E-01
  4.690178E-01
  4.691533E-01
  4.707505E-01
  4.706446E-01
  4.714680E-01
  4.702666E-01
  4.700469E-01
  4.682335E-01
  4.680479E-01
  4.668756E-01
  4.676755E-01
  4.674738E-01
  4.689258E-01
  4.689128E-01
  4.701222E-01
  4.695903E-01
  4.701979E-01
  4.691424E-01
  4.693974E-01
  4.681813E-01
  4.684332E-01
  4.673097E-01
  4.676915E-01
  4.667045E-01
  4.672348E-01
  4.664347E-01
  4.672057E-01
  4.666754E-01
  4.676783E-01
  4.672605E-01
  4.682051E-01
  4.675731E-01
  4.682324E-01
  4.673675E-01
  4.679573E-01
  4.672371E-01
  4.681508E-01
  4.678212E-01
  4.690434E-01
  4.688127E-01
  4.698703E-01
  4.692524E-01
  4.698148E-01
  4.687288E-01
  4.689501E-01
  4.676880E-01
  4.678878E-01
  4.667344E-01
  4.671588E-01
  4.642783E-01
  4.654547E-01
  4.656315E-01
  4.672504E-01
  4.675233E-01
  4.689116E-01
  4.687073E-01
  4.694827E-01
  4.686471E-01
  4.688833E-01
  4.676983E-01
  4.678532E-01
  4.668995E-01
  4.675834E-01
  4.673593E-01
  4.687923E-01
  4.691039E-01
  4.706440E-01
  4.705209E-01
  4.711371E-01
  4.698302E-01
  4.693472E-01
  4.673653E-01
  4.668340E-01
  4.654107E-01
  4.658085E-01
  4.653358E-01
  4.663998E-01
  4.661758E-01
  4.671495E-01
  4.667131E-01
  4.675663E-01
  4.671850E-01
  4.681823E-01
  4.678429E-01
  4.686138E-01
  4.677545E-01
  4.678594E-01
  4.664411E-01
  4.663275E-01
  4.651304E-01
  4.655991E-01
  4.651328E-01
  4.662349E-01
  4.661278E-01
  4.672628E-01
  4.669282E-01
  4.677086E-01
  4.670310E-01
  4.675813E-01
  4.668366E-01
  4.674855E-01
  4.669690E-01
  4.679047E-01
  4.676333E-01
  4.686604E-01
  4.682376E-01
  4.688454E-01
  4.678013E-01
  4.677380E-01
  4.661681E-01
  4.658966E-01
  4.645246E-01
  4.648294E-01
  4.675622E-01
  4.680838E-01
  4.676571E-01
  4.681306E-01
  4.676552E-01
  4.680511E-01
  4.674621E-01
  4.677306E-01
  4.670356E-01
  4.672476E-01
  4.665616E-01
  4.668652E-01
  4.663846E-01
  4.670418E-01
  4.670622E-01
  4.682886E-01
  4.687795E-01
  4.701703E-01
  4.703644E-01
  4.709887E-01
  4.701230E-01
  4.697060E-01
  4.681443E-01
  4.675841E-01
  4.664381E-01
  4.666670E-01
  4.663971E-01
  4.673229E-01
  4.674147E-01
  4.683477E-01
  4.681764E-01
  4.687028E-01
  4.681010E-01
  4.682599E-01
  4.674049E-01
  4.674477E-01
  4.666137E-01
  4.667967E-01
  4.661925E-01
  4.666577E-01
  4.663441E-01
  4.670556E-01
  4.668843E-01
  4.675816E-01
  4.672203E-01
  4.675897E-01
  4.668621E-01
  4.669630E-01
  4.661869E-01
  4.665147E-01
  4.661980E-01
  4.670817E-01
  4.672315E-01
  4.683244E-01
  4.683431E-01
  4.690046E-01
  4.684445E-01
  4.685846E-01
  4.677308E-01
  4.678691E-01
  4.672445E-01
  4.677009E-01
  4.673386E-01
  4.679229E-01
  4.660297E-01
  4.667317E-01
  4.669777E-01
  4.676416E-01
  4.677272E-01
  4.681411E-01
  4.679089E-01
  4.679601E-01
  4.673641E-01
  4.671254E-01
  4.664068E-01
  4.662917E-01
  4.659693E-01
  4.664729E-01
  4.668652E-01
  4.680029E-01
  4.687661E-01
  4.698723E-01
  4.701497E-01
  4.703781E-01
  4.695633E-01
  4.687435E-01
  4.671936E-01
  4.661411E-01
  4.648964E-01
  4.645508E-01
  4.641634E-01
  4.645709E-01
  4.646834E-01
  4.653412E-01
  4.655686E-01
  4.663267E-01
  4.666714E-01
  4.674807E-01
  4.676748E-01
  4.680517E-01
  4.675901E-01
  4.672851E-01
  4.663645E-01
  4.660003E-01
  4.654323E-01
  4.656724E-01
  4.657047E-01
  4.663088E-01
  4.663605E-01
  4.666881E-01
  4.663326E-01
  4.663177E-01
  4.658247E-01
  4.659165E-01
  4.657160E-01
  4.661722E-01
  4.662886E-01
  4.669248E-01
  4.670396E-01
  4.674902E-01
  4.672713E-01
  4.673112E-01
  4.667026E-01
  4.664802E-01
  4.658190E-01
  4.657791E-01
  4.654885E-01
  4.659029E-01
  4.696521E-01
  4.694255E-01
  4.692320E-01
  4.684600E-01
  4.679474E-01
  4.670806E-01
  4.666428E-01
  4.659547E-01
  4.657492E-01
  4.653196E-01
  4.653900E-01
  4.652577E-01
  4.656587E-01
  4.658991E-01
  4.667019E-01
  4.673201E-01
  4.683792E-01
  4.690145E-01
  4.697630E-01
  4.697556E-01
  4.696385E-01
  4.687460E-01
  4.679575E-01
  4.667850E-01
  4.661652E-01
  4.655338E-01
  4.656562E-01
  4.657708E-01
  4.664814E-01
  4.669312E-01
  4.676947E-01
  4.679370E-01
  4.682932E-01
  4.680214E-01
  4.678747E-01
  4.672334E-01
  4.669444E-01
  4.664235E-01
  4.664803E-01
  4.664285E-01
  4.669382E-01
  4.671810E-01
  4.677190E-01
  4.676841E-01
  4.676897E-01
  4.670115E-01
  4.664678E-01
  4.655364E-01
  4.651596E-01
  4.648045E-01
  4.652576E-01
  4.657309E-01
  4.667445E-01
  4.673305E-01
  4.679863E-01
  4.678933E-01
  4.678183E-01
  4.672304E-01
  4.670880E-01
  4.668758E-01
  4.673866E-01
  4.678305E-01
  4.687344E-01
  4.691603E-01
  4.681476E-01
  4.678443E-01
  4.684914E-01
  4.677531E-01
  4.680298E-01
  4.670486E-01
  4.671987E-01
  4.661573E-01
  4.662792E-01
  4.652575E-01
  4.655057E-01
  4.647748E-01
  4.654852E-01
  4.653204E-01
  4.665772E-01
  4.668042E-01
  4.681982E-01
  4.682664E-01
  4.692215E-01
  4.686326E-01
  4.688123E-01
  4.674634E-01
  4.670522E-01
  4.654189E-01
  4.650999E-01
  4.639019E-01
  4.642319E-01
  4.637283E-01
  4.646653E-01
  4.646290E-01
  4.659077E-01
  4.661082E-01
  4.674911E-01
  4.675831E-01
  4.685708E-01
  4.679956E-01
  4.681913E-01
  4.669443E-01
  4.668263E-01
  4.657340E-01
  4.661561E-01
  4.657412E-01
  4.666753E-01
  4.663876E-01
  4.670249E-01
  4.661677E-01
  4.662276E-01
  4.650420E-01
  4.651622E-01
  4.644009E-01
  4.651485E-01
  4.650009E-01
  4.661655E-01
  4.661458E-01
  4.671577E-01
  4.667880E-01
  4.673707E-01
  4.666138E-01
  4.669550E-01
  4.661708E-01
  4.667114E-01
  4.662938E-01
  4.672434E-01
  4.671254E-01
  4.714432E-01
  4.701087E-01
  4.703939E-01
  4.683012E-01
  4.681669E-01
  4.660185E-01
  4.661232E-01
  4.643964E-01
  4.649989E-01
  4.637704E-01
  4.648299E-01
  4.639991E-01
  4.653911E-01
  4.648264E-01
  4.664169E-01
  4.659787E-01
  4.676102E-01
  4.671040E-01
  4.685343E-01
  4.676866E-01
  4.686651E-01
  4.673306E-01
  4.678945E-01
  4.663233E-01
  4.668961E-01
  4.655854E-01
  4.666135E-01
  4.658521E-01
  4.674039E-01
  4.670235E-01
  4.687164E-01
  4.681808E-01
  4.694308E-01
  4.682536E-01
  4.688256E-01
  4.671284E-01
  4.675005E-01
  4.659931E-01
  4.668912E-01
  4.660828E-01
  4.676288E-01
  4.671993E-01
  4.687098E-01
  4.678051E-01
  4.685149E-01
  4.667173E-01
  4.667298E-01
  4.646794E-01
  4.650022E-01
  4.637619E-01
  4.651621E-01
  4.649430E-01
  4.670077E-01
  4.669235E-01
  4.686060E-01
  4.678119E-01
  4.687518E-01
  4.674737E-01
  4.683674E-01
  4.674813E-01
  4.690265E-01
  4.687641E-01
  4.706245E-01
  4.702040E-01
  4.693109E-01
  4.680553E-01
  4.690994E-01
  4.674116E-01
  4.681122E-01
  4.662502E-01
  4.669378E-01
  4.651580E-01
  4.659613E-01
  4.643199E-01
  4.653232E-01
  4.639874E-01
  4.653978E-01
  4.644994E-01
  4.662674E-01
  4.655535E-01
  4.673018E-01
  4.663994E-01
  4.678592E-01
  4.666285E-01
  4.677537E-01
  4.662032E-01
  4.670582E-01
  4.653438E-01
  4.661961E-01
  4.646576E-01
  4.658262E-01
  4.646693E-01
  4.662146E-01
  4.653931E-01
  4.672220E-01
  4.666090E-01
  4.685057E-01
  4.677282E-01
  4.691726E-01
  4.677069E-01
  4.684101E-01
  4.664092E-01
  4.670013E-01
  4.653740E-01
  4.666793E-01
  4.658039E-01
  4.675752E-01
  4.666786E-01
  4.679535E-01
  4.663020E-01
  4.668832E-01
  4.648798E-01
  4.655787E-01
  4.641021E-01
  4.655383E-01
  4.647731E-01
  4.667163E-01
  4.661803E-01
  4.680942E-01
  4.673377E-01
  4.689162E-01
  4.677811E-01
  4.690122E-01
  4.676404E-01
  4.688082E-01
  4.675537E-01
  4.689459E-01
  4.678873E-01
  4.718110E-01
  4.699580E-01
  4.703797E-01
  4.679670E-01
  4.681141E-01
  4.657405E-01
  4.661827E-01
  4.642557E-01
  4.651904E-01
  4.637263E-01
  4.650561E-01
  4.639068E-01
  4.654691E-01
  4.644710E-01
  4.661090E-01
  4.651260E-01
  4.667411E-01
  4.657185E-01
  4.672873E-01
  4.662079E-01
  4.677001E-01
  4.665235E-01
  4.679144E-01
  4.666634E-01
  4.680389E-01
  4.668501E-01
  4.683623E-01
  4.673580E-01
  4.690530E-01
  4.681617E-01
  4.698234E-01
  4.686919E-01
  4.698976E-01
  4.681650E-01
  4.687753E-01
  4.666432E-01
  4.672095E-01
  4.654497E-01
  4.667315E-01
  4.658380E-01
  4.678824E-01
  4.674098E-01
  4.693866E-01
  4.683531E-01
  4.694235E-01
  4.674031E-01
  4.677098E-01
  4.653916E-01
  4.659649E-01
  4.643982E-01
  4.659826E-01
  4.653989E-01
  4.676868E-01
  4.673877E-01
  4.695424E-01
  4.688144E-01
  4.704348E-01
  4.692594E-01
  4.706525E-01
  4.695019E-01
  4.710947E-01
  4.701621E-01
  4.718161E-01
  4.706668E-01
  4.688813E-01
  4.677300E-01
  4.685140E-01
  4.672703E-01
  4.679511E-01
  4.666579E-01
  4.673403E-01
  4.660491E-01
  4.666933E-01
  4.653410E-01
  4.659747E-01
  4.647418E-01
  4.656478E-01
  4.647785E-01
  4.660220E-01
  4.653565E-01
  4.666286E-01
  4.658535E-01
  4.669586E-01
  4.660306E-01
  4.670286E-01
  4.660370E-01
  4.670048E-01
  4.660175E-01
  4.670302E-01
  4.661195E-01
  4.672094E-01
  4.663420E-01
  4.674352E-01
  4.665662E-01
  4.677023E-01
  4.669331E-01
  4.681655E-01
  4.673742E-01
  4.683696E-01
  4.671315E-01
  4.676123E-01
  4.660221E-01
  4.665174E-01
  4.653693E-01
  4.665990E-01
  4.661946E-01
  4.678746E-01
  4.674450E-01
  4.686459E-01
  4.674905E-01
  4.680086E-01
  4.664539E-01
  4.669532E-01