# vtk DataFile Version 2.0
title
ASCII
DATASET STRUCTURED_GRID
DIMENSIONS   64   64    1
POINTS   4096  float
  0.000000E+00  0.000000E+00  0.000000E+00
  0.000000E+00  3.906250E-01  0.000000E+00
  0.000000E+00  7.812500E-01  0.000000E+00
  0.000000E+00  1.171875E+00  0.000000E+00
  0.000000E+00  1.562500E+00  0.000000E+00
  0.000000E+00  1.953125E+00  0.000000E+00
  0.000000E+00  2.343750E+00  0.000000E+00
  0.000000E+00  2.734375E+00  0.000000E+00
  0.000000E+00  3.125000E+00  0.000000E+00
  0.000000E+00  3.515625E+00  0.000000E+00
  0.000000E+00  3.906250E+00  0.000000E+00
  0.000000E+00  4.296875E+00  0.000000E+00
  0.000000E+00  4.687500E+00  0.000000E+00
  0.000000E+00  5.078125E+00  0.000000E+00
  0.000000E+00  5.468750E+00  0.000000E+00
  0.000000E+00  5.859375E+00  0.000000E+00
  0.000000E+00  6.250000E+00  0.000000E+00
  0.000000E+00  6.640625E+00  0.000000E+00
  0.000000E+00  7.031250E+00  0.000000E+00
  0.000000E+00  7.421875E+00  0.000000E+00
  0.000000E+00  7.812500E+00  0.000000E+00
  0.000000E+00  8.203125E+00  0.000000E+00
  0.000000E+00  8.593750E+00  0.000000E+00
  0.000000E+00  8.984375E+00  0.000000E+00
  0.000000E+00  9.375000E+00  0.000000E+00
  0.000000E+00  9.765625E+00  0.000000E+00
  0.000000E+00  1.015625E+01  0.000000E+00
  0.000000E+00  1.054688E+01  0.000000E+00
  0.000000E+00  1.093750E+01  0.000000E+00
  0.000000E+00  1.132812E+01  0.000000E+00
  0.000000E+00  1.171875E+01  0.000000E+00
  0.000000E+00  1.210938E+01  0.000000E+00
  0.000000E+00  1.250000E+01  0.000000E+00
  0.000000E+00  1.289062E+01  0.000000E+00
  0.000000E+00  1.328125E+01  0.000000E+00
  0.000000E+00  1.367188E+01  0.000000E+00
  0.000000E+00  1.406250E+01  0.000000E+00
  0.000000E+00  1.445312E+01  0.000000E+00
  0.000000E+00  1.484375E+01  0.000000E+00
  0.000000E+00  1.523438E+01  0.000000E+00
  0.000000E+00  1.562500E+01  0.000000E+00
  0.000000E+00  1.601562E+01  0.000000E+00
  0.000000E+00  1.640625E+01  0.000000E+00
  0.000000E+00  1.679688E+01  0.000000E+00
  0.000000E+00  1.718750E+01  0.000000E+00
  0.000000E+00  1.757812E+01  0.000000E+00
  0.000000E+00  1.796875E+01  0.000000E+00
  0.000000E+00  1.835938E+01  0.000000E+00
  0.000000E+00  1.875000E+01  0.000000E+00
  0.000000E+00  1.914062E+01  0.000000E+00
  0.000000E+00  1.953125E+01  0.000000E+00
  0.000000E+00  1.992188E+01  0.000000E+00
  0.000000E+00  2.031250E+01  0.000000E+00
  0.000000E+00  2.070312E+01  0.000000E+00
  0.000000E+00  2.109375E+01  0.000000E+00
  0.000000E+00  2.148438E+01  0.000000E+00
  0.000000E+00  2.187500E+01  0.000000E+00
  0.000000E+00  2.226562E+01  0.000000E+00
  0.000000E+00  2.265625E+01  0.000000E+00
  0.000000E+00  2.304688E+01  0.000000E+00
  0.000000E+00  2.343750E+01  0.000000E+00
  0.000000E+00  2.382812E+01  0.000000E+00
  0.000000E+00  2.421875E+01  0.000000E+00
  0.000000E+00  2.460938E+01  0.000000E+00
  3.906250E-01  0.000000E+00  0.000000E+00
  3.906250E-01  3.906250E-01  0.000000E+00
  3.906250E-01  7.812500E-01  0.000000E+00
  3.906250E-01  1.171875E+00  0.000000E+00
  3.906250E-01  1.562500E+00  0.000000E+00
  3.906250E-01  1.953125E+00  0.000000E+00
  3.906250E-01  2.343750E+00  0.000000E+00
  3.906250E-01  2.734375E+00  0.000000E+00
  3.906250E-01  3.125000E+00  0.000000E+00
  3.906250E-01  3.515625E+00  0.000000E+00
  3.906250E-01  3.906250E+00  0.000000E+00
  3.906250E-01  4.296875E+00  0.000000E+00
  3.906250E-01  4.687500E+00  0.000000E+00
  3.906250E-01  5.078125E+00  0.000000E+00
  3.906250E-01  5.468750E+00  0.000000E+00
  3.906250E-01  5.859375E+00  0.000000E+00
  3.906250E-01  6.250000E+00  0.000000E+00
  3.906250E-01  6.640625E+00  0.000000E+00
  3.906250E-01  7.031250E+00  0.000000E+00
  3.906250E-01  7.421875E+00  0.000000E+00
  3.906250E-01  7.812500E+00  0.000000E+00
  3.906250E-01  8.203125E+00  0.000000E+00
  3.906250E-01  8.593750E+00  0.000000E+00
  3.906250E-01  8.984375E+00  0.000000E+00
  3.906250E-01  9.375000E+00  0.000000E+00
  3.906250E-01  9.765625E+00  0.000000E+00
  3.906250E-01  1.015625E+01  0.000000E+00
  3.906250E-01  1.054688E+01  0.000000E+00
  3.906250E-01  1.093750E+01  0.000000E+00
  3.906250E-01  1.132812E+01  0.000000E+00
  3.906250E-01  1.171875E+01  0.000000E+00
  3.906250E-01  1.210938E+01  0.000000E+00
  3.906250E-01  1.250000E+01  0.000000E+00
  3.906250E-01  1.289062E+01  0.000000E+00
  3.906250E-01  1.328125E+01  0.000000E+00
  3.906250E-01  1.367188E+01  0.000000E+00
  3.906250E-01  1.406250E+01  0.000000E+00
  3.906250E-01  1.445312E+01  0.000000E+00
  3.906250E-01  1.484375E+01  0.000000E+00
  3.906250E-01  1.523438E+01  0.000000E+00
  3.906250E-01  1.562500E+01  0.000000E+00
  3.906250E-01  1.601562E+01  0.000000E+00
  3.906250E-01  1.640625E+01  0.000000E+00
  3.906250E-01  1.679688E+01  0.000000E+00
  3.906250E-01  1.718750E+01  0.000000E+00
  3.906250E-01  1.757812E+01  0.000000E+00
  3.906250E-01  1.796875E+01  0.000000E+00
  3.906250E-01  1.835938E+01  0.000000E+00
  3.906250E-01  1.875000E+01  0.000000E+00
  3.906250E-01  1.914062E+01  0.000000E+00
  3.906250E-01  1.953125E+01  0.000000E+00
  3.906250E-01  1.992188E+01  0.000000E+00
  3.906250E-01  2.031250E+01  0.000000E+00
  3.906250E-01  2.070312E+01  0.000000E+00
  3.906250E-01  2.109375E+01  0.000000E+00
  3.906250E-01  2.148438E+01  0.000000E+00
  3.906250E-01  2.187500E+01  0.000000E+00
  3.906250E-01  2.226562E+01  0.000000E+00
  3.906250E-01  2.265625E+01  0.000000E+00
  3.906250E-01  2.304688E+01  0.000000E+00
  3.906250E-01  2.343750E+01  0.000000E+00
  3.906250E-01  2.382812E+01  0.000000E+00
  3.906250E-01  2.421875E+01  0.000000E+00
  3.906250E-01  2.460938E+01  0.000000E+00
  7.812500E-01  0.000000E+00  0.000000E+00
  7.812500E-01  3.906250E-01  0.000000E+00
  7.812500E-01  7.812500E-01  0.000000E+00
  7.812500E-01  1.171875E+00  0.000000E+00
  7.812500E-01  1.562500E+00  0.000000E+00
  7.812500E-01  1.953125E+00  0.000000E+00
  7.812500E-01  2.343750E+00  0.000000E+00
  7.812500E-01  2.734375E+00  0.000000E+00
  7.812500E-01  3.125000E+00  0.000000E+00
  7.812500E-01  3.515625E+00  0.000000E+00
  7.812500E-01  3.906250E+00  0.000000E+00
  7.812500E-01  4.296875E+00  0.000000E+00
  7.812500E-01  4.687500E+00  0.000000E+00
  7.812500E-01  5.078125E+00  0.000000E+00
  7.812500E-01  5.468750E+00  0.000000E+00
  7.812500E-01  5.859375E+00  0.000000E+00
  7.812500E-01  6.250000E+00  0.000000E+00
  7.812500E-01  6.640625E+00  0.000000E+00
  7.812500E-01  7.031250E+00  0.000000E+00
  7.812500E-01  7.421875E+00  0.000000E+00
  7.812500E-01  7.812500E+00  0.000000E+00
  7.812500E-01  8.203125E+00  0.000000E+00
  7.812500E-01  8.593750E+00  0.000000E+00
  7.812500E-01  8.984375E+00  0.000000E+00
  7.812500E-01  9.375000E+00  0.000000E+00
  7.812500E-01  9.765625E+00  0.000000E+00
  7.812500E-01  1.015625E+01  0.000000E+00
  7.812500E-01  1.054688E+01  0.000000E+00
  7.812500E-01  1.093750E+01  0.000000E+00
  7.812500E-01  1.132812E+01  0.000000E+00
  7.812500E-01  1.171875E+01  0.000000E+00
  7.812500E-01  1.210938E+01  0.000000E+00
  7.812500E-01  1.250000E+01  0.000000E+00
  7.812500E-01  1.289062E+01  0.000000E+00
  7.812500E-01  1.328125E+01  0.000000E+00
  7.812500E-01  1.367188E+01  0.000000E+00
  7.812500E-01  1.406250E+01  0.000000E+00
  7.812500E-01  1.445312E+01  0.000000E+00
  7.812500E-01  1.484375E+01  0.000000E+00
  7.812500E-01  1.523438E+01  0.000000E+00
  7.812500E-01  1.562500E+01  0.000000E+00
  7.812500E-01  1.601562E+01  0.000000E+00
  7.812500E-01  1.640625E+01  0.000000E+00
  7.812500E-01  1.679688E+01  0.000000E+00
  7.812500E-01  1.718750E+01  0.000000E+00
  7.812500E-01  1.757812E+01  0.000000E+00
  7.812500E-01  1.796875E+01  0.000000E+00
  7.812500E-01  1.835938E+01  0.000000E+00
  7.812500E-01  1.875000E+01  0.000000E+00
  7.812500E-01  1.914062E+01  0.000000E+00
  7.812500E-01  1.953125E+01  0.000000E+00
  7.812500E-01  1.992188E+01  0.000000E+00
  7.812500E-01  2.031250E+01  0.000000E+00
  7.812500E-01  2.070312E+01  0.000000E+00
  7.812500E-01  2.109375E+01  0.000000E+00
  7.812500E-01  2.148438E+01  0.000000E+00
  7.812500E-01  2.187500E+01  0.000000E+00
  7.812500E-01  2.226562E+01  0.000000E+00
  7.812500E-01  2.265625E+01  0.000000E+00
  7.812500E-01  2.304688E+01  0.000000E+00
  7.812500E-01  2.343750E+01  0.000000E+00
  7.812500E-01  2.382812E+01  0.000000E+00
  7.812500E-01  2.421875E+01  0.000000E+00
  7.812500E-01  2.460938E+01  0.000000E+00
  1.171875E+00  0.000000E+00  0.000000E+00
  1.171875E+00  3.906250E-01  0.000000E+00
  1.171875E+00  7.812500E-01  0.000000E+00
  1.171875E+00  1.171875E+00  0.000000E+00
  1.171875E+00  1.562500E+00  0.000000E+00
  1.171875E+00  1.953125E+00  0.000000E+00
  1.171875E+00  2.343750E+00  0.000000E+00
  1.171875E+00  2.734375E+00  0.000000E+00
  1.171875E+00  3.125000E+00  0.000000E+00
  1.171875E+00  3.515625E+00  0.000000E+00
  1.171875E+00  3.906250E+00  0.000000E+00
  1.171875E+00  4.296875E+00  0.000000E+00
  1.171875E+00  4.687500E+00  0.000000E+00
  1.171875E+00  5.078125E+00  0.000000E+00
  1.171875E+00  5.468750E+00  0.000000E+00
  1.171875E+00  5.859375E+00  0.000000E+00
  1.171875E+00  6.250000E+00  0.000000E+00
  1.171875E+00  6.640625E+00  0.000000E+00
  1.171875E+00  7.031250E+00  0.000000E+00
  1.171875E+00  7.421875E+00  0.000000E+00
  1.171875E+00  7.812500E+00  0.000000E+00
  1.171875E+00  8.203125E+00  0.000000E+00
  1.171875E+00  8.593750E+00  0.000000E+00
  1.171875E+00  8.984375E+00  0.000000E+00
  1.171875E+00  9.375000E+00  0.000000E+00
  1.171875E+00  9.765625E+00  0.000000E+00
  1.171875E+00  1.015625E+01  0.000000E+00
  1.171875E+00  1.054688E+01  0.000000E+00
  1.171875E+00  1.093750E+01  0.000000E+00
  1.171875E+00  1.132812E+01  0.000000E+00
  1.171875E+00  1.171875E+01  0.000000E+00
  1.171875E+00  1.210938E+01  0.000000E+00
  1.171875E+00  1.250000E+01  0.000000E+00
  1.171875E+00  1.289062E+01  0.000000E+00
  1.171875E+00  1.328125E+01  0.000000E+00
  1.171875E+00  1.367188E+01  0.000000E+00
  1.171875E+00  1.406250E+01  0.000000E+00
  1.171875E+00  1.445312E+01  0.000000E+00
[...]
POINT_DATA   4096
SCALARS CON  float  1
LOOKUP_TABLE default
  4.695082E-01
  4.685076E-01
  4.709949E-01
  4.695411E-01
  4.712900E-01
  4.691307E-01
  4.704474E-01
  4.682025E-01
  4.696939E-01
  4.677235E-01
  4.694592E-01
  4.676668E-01
  4.695637E-01
  4.679863E-01
  4.701705E-01
  4.688838E-01
  4.712285E-01
  4.698391E-01
  4.717567E-01
  4.696675E-01
  4.707682E-01
  4.679535E-01
  4.686114E-01
  4.657460E-01
  4.667388E-01
  4.644773E-01
  4.661596E-01
  4.644916E-01
  4.665567E-01
  4.650488E-01
  4.671306E-01
  4.656121E-01
  4.677395E-01
  4.663247E-01
  4.685330E-01
  4.670608E-01
  4.689930E-01
  4.670338E-01
  4.683750E-01
  4.658915E-01
  4.669481E-01
  4.645362E-01
  4.660440E-01
  4.643839E-01
  4.667781E-01
  4.659206E-01
  4.688145E-01
  4.680008E-01
  4.704588E-01
  4.688679E-01
  4.704826E-01
  4.682995E-01
  4.698016E-01
  4.680130E-01
  4.702114E-01
  4.690617E-01
  4.714895E-01
  4.699854E-01
  4.715730E-01
  4.690798E-01
  4.699542E-01
  4.673401E-01
  4.687472E-01
  4.670990E-01
  4.713447E-01
  4.707416E-01
  4.720420E-01
  4.706543E-01
  4.710488E-01
  4.689785E-01
  4.691540E-01
  4.673707E-01
  4.681838E-01
  4.671256E-01
  4.685103E-01
  4.677554E-01
  4.692137E-01
  4.684389E-01
  4.699162E-01
  4.692409E-01
  4.708249E-01
  4.701227E-01
  4.714258E-01
  4.701666E-01
  4.707411E-01
  4.687774E-01
  4.688818E-01
  4.668277E-01
  4.672509E-01
  4.658323E-01
  4.670284E-01
  4.663119E-01
  4.679637E-01
  4.673624E-01
  4.687993E-01
  4.677604E-01
  4.687013E-01
  4.672700E-01
  4.680228E-01
  4.666128E-01
  4.675128E-01
  4.662508E-01
  4.671987E-01
  4.658614E-01
  4.666806E-01
  4.652910E-01
  4.662583E-01
  4.652663E-01
  4.668159E-01
  4.664252E-01
  4.683914E-01
  4.680798E-01
  4.697630E-01
  4.689346E-01
  4.701024E-01
  4.689992E-01
  4.702603E-01
  4.695638E-01
  4.713221E-01
  4.709225E-01
  4.725607E-01
  4.715942E-01
  4.724023E-01
  4.706636E-01
  4.710720E-01
  4.694691E-01
  4.704826E-01
  4.696847E-01
  4.680326E-01
  4.687525E-01
  4.698747E-01
  4.700821E-01
  4.702944E-01
  4.695926E-01
  4.692288E-01
  4.684215E-01
  4.683454E-01
  4.680089E-01
  4.683731E-01
  4.683322E-01
  4.688587E-01
  4.689336E-01
  4.696042E-01
  4.698466E-01
  4.706132E-01
  4.707451E-01
  4.710986E-01
  4.705225E-01
  4.700020E-01
  4.685994E-01
  4.675240E-01
  4.659927E-01
  4.652457E-01
  4.643989E-01
  4.645001E-01
  4.644523E-01
  4.651440E-01
  4.654187E-01
  4.662044E-01
  4.664392E-01
  4.671375E-01
  4.672669E-01
  4.678060E-01
  4.676553E-01
  4.677525E-01
  4.670303E-01
  4.665413E-01
  4.653849E-01
  4.647737E-01
  4.639007E-01
  4.639675E-01
  4.640446E-01
  4.651247E-01
  4.660325E-01
  4.675449E-01
  4.683702E-01
  4.693201E-01
  4.692994E-01
  4.694270E-01
  4.689185E-01
  4.690776E-01
  4.690837E-01
  4.699767E-01
  4.705433E-01
  4.714739E-01
  4.714182E-01
  4.712253E-01
  4.699497E-01
  4.689238E-01
  4.675518E-01
  4.672231E-01
  4.670776E-01
  4.694645E-01
  4.705898E-01
  4.704118E-01
  4.707101E-01
  4.695184E-01
  4.690068E-01
  4.675092E-01
  4.672853E-01
  4.665240E-01
  4.671882E-01
  4.671626E-01
  4.682322E-01
  4.682876E-01
  4.692603E-01
  4.692180E-01
  4.701865E-01
  4.701927E-01
  4.711193E-01
  4.708423E-01
  4.711856E-01
  4.701083E-01
  4.696373E-01
  4.679738E-01
  4.673298E-01
  4.659673E-01
  4.660176E-01
  4.655540E-01
  4.664747E-01
  4.666439E-01
  4.678306E-01
  4.678793E-01
  4.686465E-01
  4.681371E-01
  4.683836E-01
  4.675206E-01
  4.676222E-01
  4.667741E-01
  4.669500E-01
  4.661468E-01
  4.663135E-01
  4.655009E-01
  4.657595E-01
  4.652250E-01
  4.659555E-01
  4.659921E-01
  4.672223E-01
  4.675117E-01
  4.686502E-01
  4.685403E-01
  4.691425E-01
  4.685991E-01
  4.690752E-01
  4.687818E-01
  4.697720E-01
  4.700015E-01
  4.712335E-01
  4.712350E-01
  4.717787E-01
  4.708498E-01
  4.705638E-01
  4.692296E-01
  4.691266E-01
  4.684920E-01
  4.693205E-01
  4.660153E-01
  4.682055E-01
  4.679748E-01
  4.696770E-01
  4.685364E-01
  4.693047E-01
  4.675584E-01
  4.682153E-01
  4.667926E-01
  4.679930E-01
  4.670927E-01
  4.686453E-01
  4.679162E-01
  4.695481E-01
  4.689051E-01
  4.706538E-01
  4.700790E-01
  4.717049E-01
  4.706961E-01
  4.715603E-01
  4.695839E-01
  4.695050E-01
  4.668674E-01
  4.665976E-01
  4.642902E-01
  4.647707E-01
  4.634243E-01
  4.648393E-01
  4.642174E-01
  4.660678E-01
  4.656167E-01
  4.674573E-01
  4.668977E-01
  4.685640E-01
  4.677423E-01
  4.690147E-01
  4.676527E-01
  4.682938E-01
  4.663394E-01
  4.665939E-01
  4.646018E-01
  4.652286E-01
  4.639658E-01
  4.655187E-01
  4.651520E-01
  4.673400E-01
  4.671792E-01
  4.690931E-01
  4.682717E-01
  4.693605E-01
  4.678376E-01
  4.686045E-01
  4.672590E-01
  4.686220E-01
  4.680224E-01
  4.699189E-01
  4.693365E-01
  4.706306E-01
  4.689889E-01
  4.691482E-01
  4.667452E-01
  4.668430E-01
  4.651362E-01
  4.664444E-01
  4.675950E-01
  4.697132E-01
  4.685280E-01
  4.699530E-01
  4.678898E-01
  4.685922E-01
  4.662406E-01
  4.671900E-01
  4.655077E-01
  4.672836E-01
  4.662984E-01
  4.684650E-01
  4.675617E-01
  4.696410E-01
  4.686557E-01
  4.707515E-01
  4.698334E-01
  4.718894E-01
  4.706568E-01
  4.720569E-01
  4.699210E-01
  4.704014E-01
  4.676057E-01
  4.678963E-01
  4.654456E-01
  4.665186E-01
  4.650710E-01
  4.671089E-01
  4.663649E-01
  4.687142E-01
  4.678746E-01
  4.698122E-01
  4.684039E-01
  4.697884E-01
  4.679719E-01
  4.691421E-01
  4.672730E-01
  4.684729E-01
  4.666434E-01
  4.678711E-01
  4.660955E-01
  4.674706E-01
  4.659789E-01
  4.677481E-01
  4.666579E-01
  4.686933E-01
  4.676161E-01
  4.693818E-01
  4.678390E-01
  4.691226E-01
  4.672846E-01
  4.685985E-01
  4.671231E-01
  4.689924E-01
  4.680280E-01
  4.701269E-01
  4.689767E-01
  4.705071E-01
  4.686010E-01
  4.694714E-01
  4.672594E-01
  4.683058E-01
  4.666929E-01
  4.685331E-01
  4.645028E-01
  4.671060E-01
  4.663442E-01
  4.687195E-01
  4.673189E-01
  4.689478E-01
  4.669884E-01
  4.684113E-01
  4.665873E-01
  4.683417E-01
  4.668672E-01
  4.688769E-01
  4.675591E-01
  4.696991E-01
  4.685553E-01
  4.709058E-01
  4.699008E-01
  4.721547E-01
  4.706889E-01
  4.721099E-01
  4.695871E-01
  4.699934E-01
  4.667872E-01
  4.670428E-01
  4.642566E-01
  4.653683E-01
  4.636271E-01
  4.657104E-01
  4.646818E-01
  4.671574E-01
  4.662511E-01
  4.686822E-01
  4.676500E-01
  4.698973E-01
  4.685872E-01
  4.704111E-01
  4.685239E-01
  4.696895E-01
  4.672103E-01
  4.680236E-01
  4.655616E-01
  4.667904E-01
  4.650500E-01
  4.671172E-01
  4.661040E-01
  4.685896E-01
  4.675769E-01
  4.696562E-01
  4.679610E-01
  4.692979E-01
  4.670406E-01
  4.681843E-01
  4.661696E-01
  4.678998E-01
  4.665831E-01
  4.688261E-01
  4.675895E-01
  4.693899E-01
  4.673091E-01
  4.681640E-01
  4.654045E-01
  4.661355E-01
  4.638916E-01
  4.656170E-01
  4.665246E-01
  4.685207E-01
  4.672784E-01
  4.689479E-01
  4.672020E-01
  4.684052E-01
  4.664278E-01
  4.677270E-01
  4.661217E-01
  4.679049E-01
  4.667087E-01
  4.687151E-01
  4.675713E-01
  4.695738E-01
  4.684942E-01
  4.706666E-01
  4.697704E-01
  4.719571E-01
  4.707377E-01
  4.722184E-01
  4.700396E-01
  4.705765E-01
  4.677705E-01
  4.682065E-01
  4.658631E-01
  4.671833E-01
  4.658873E-01
  4.681388E-01
  4.674456E-01
  4.698764E-01
  4.689677E-01
  4.709109E-01
  4.694090E-01
  4.708100E-01
  4.689203E-01
  4.701170E-01
  4.681707E-01
  4.693919E-01
  4.674969E-01
  4.687839E-01
  4.669978E-01
  4.684759E-01
  4.669716E-01
  4.687733E-01
  4.675352E-01
  4.694375E-01
  4.680705E-01
  4.696350E-01
  4.678309E-01
  4.690206E-01
  4.670544E-01
  4.683702E-01
  4.667830E-01
  4.685932E-01
  4.674260E-01
  4.694139E-01
  4.681024E-01
  4.696643E-01
  4.677909E-01
  4.688517E-01
  4.667142E-01
  4.678415E-01
  4.660786E-01
  4.677568E-01
  4.638514E-01
  4.659639E-01
  4.654931E-01
  4.677952E-01
  4.671045E-01
  4.689416E-01
  4.677437E-01
  4.691846E-01
  4.677584E-01
  4.691118E-01
  4.676820E-01
  4.690859E-01
  4.677796E-01
  4.694210E-01
  4.684721E-01
  4.705139E-01
  4.698485E-01
  4.718698E-01
  4.707572E-01
  4.719253E-01
  4.697391E-01
  4.699125E-01
  4.671138E-01
  4.672464E-01
  4.649810E-01
  4.660401E-01
  4.648094E-01
  4.667376E-01
  4.660472E-01
  4.681733E-01
  4.674420E-01
  4.694285E-01
  4.685518E-01
  4.703896E-01
  4.692903E-01
  4.707519E-01
  4.691045E-01
  4.699275E-01
  4.677160E-01
  4.682332E-01
  4.660968E-01
  4.670754E-01
  4.656663E-01
  4.674331E-01
  4.666540E-01
  4.687289E-01
  4.678734E-01
  4.695366E-01
  4.680743E-01
  4.691246E-01
  4.672292E-01
  4.681573E-01
  4.664845E-01
  4.678976E-01
  4.667901E-01
  4.686198E-01
  4.675845E-01
  4.690595E-01
  4.673181E-01
  4.679565E-01
  4.655418E-01
  4.659286E-01
  4.638051E-01
  4.649598E-01
  4.662231E-01
  4.675785E-01
  4.667829E-01
  4.682006E-01
  4.672922E-01
  4.685046E-01
  4.674044E-01
  4.685166E-01
  4.674216E-01
  4.685979E-01
  4.675622E-01
  4.687665E-01
  4.677657E-01
  4.690907E-01
  4.683514E-01
  4.700443E-01
  4.696368E-01
  4.714259E-01
  4.707231E-01
  4.718101E-01
  4.701609E-01
  4.703481E-01
  4.681496E-01
  4.683295E-01
  4.666685E-01
  4.677505E-01
  4.670719E-01
  4.689373E-01
  4.686598E-01
  4.704986E-01
  4.698464E-01
  4.711175E-01
  4.698741E-01
  4.706631E-01
  4.691135E-01
  4.697716E-01
  4.682199E-01
  4.689453E-01
  4.674908E-01
  4.683389E-01
  4.670533E-01
  4.681344E-01
  4.671323E-01
  4.684904E-01
  4.676746E-01
  4.690555E-01
  4.680772E-01
  4.691598E-01
  4.678565E-01
  4.687154E-01
  4.673849E-01
  4.684343E-01
  4.674475E-01
  4.688670E-01
  4.681350E-01
  4.695911E-01
  4.686499E-01
  4.697048E-01
  4.682834E-01
  4.689107E-01
  4.672253E-01
  4.678149E-01
  4.663207E-01
  4.672758E-01
  4.638533E-01
  4.653618E-01
  4.653136E-01
  4.672891E-01
  4.673155E-01
  4.690293E-01
  4.685793E-01
  4.697356E-01
  4.687551E-01
  4.694804E-01
  4.682185E-01
  4.688559E-01
  4.677350E-01
  4.687463E-01
  4.681718E-01
  4.697602E-01
  4.695938E-01
  4.712277E-01
  4.706397E-01
  4.714332E-01
  4.697944E-01
  4.696344E-01
  4.674356E-01
  4.672790E-01
  4.656249E-01
  4.663530E-01
  4.656306E-01
  4.670744E-01
  4.667177E-01
  4.682030E-01
  4.677026E-01
  4.690172E-01
  4.684064E-01
  4.696487E-01
  4.689030E-01
  4.698463E-01
  4.686144E-01
  4.689751E-01
  4.672403E-01
  4.673624E-01
  4.657626E-01
  4.663759E-01
  4.654842E-01
  4.668169E-01
  4.664598E-01
  4.680199E-01
  4.675632E-01
  4.687710E-01
  4.678436E-01
  4.686130E-01
  4.674072E-01
  4.681330E-01
  4.671209E-01
  4.682026E-01
  4.675706E-01
  4.688918E-01
  4.682200E-01
  4.691653E-01
  4.678408E-01
  4.680270E-01
  4.660696E-01
  4.659662E-01
  4.641860E-01
  4.647096E-01
  4.665409E-01
  4.674191E-01
  4.669203E-01
  4.679644E-01
  4.675044E-01
  4.684681E-01
  4.678478E-01
  4.686224E-01
  4.678247E-01
  4.684557E-01
  4.675627E-01
  4.681729E-01
  4.673786E-01
  4.682496E-01
  4.678763E-01
  4.692446E-01
  4.692796E-01
  4.707743E-01
  4.705211E-01
  4.713208E-01
  4.701380E-01
  4.700576E-01
  4.683323E-01
  4.682222E-01
  4.669744E-01
  4.676718E-01
  4.672903E-01
  4.686539E-01
  4.685775E-01
  4.698586E-01
  4.694014E-01
  4.701541E-01
  4.691736E-01
  4.695189E-01
  4.682968E-01
  4.685616E-01
  4.673821E-01
  4.677675E-01
  4.667546E-01
  4.673394E-01
  4.665549E-01
  4.673857E-01
  4.668323E-01
  4.678277E-01
  4.673214E-01
  4.682242E-01
  4.675130E-01
  4.681755E-01
  4.672905E-01
  4.679308E-01
  4.672056E-01
  4.681458E-01
  4.677577E-01
  4.689466E-01
  4.686189E-01
  4.696439E-01
  4.689673E-01
  4.695540E-01
  4.684622E-01
  4.687472E-01
  4.675136E-01
  4.678193E-01
  4.667433E-01
  4.673054E-01
  4.645446E-01
  4.656773E-01
  4.658001E-01
  4.673063E-01
  4.674994E-01
  4.687902E-01
  4.685513E-01
  4.692908E-01
  4.684873E-01
  4.687523E-01
  4.676573E-01
  4.678845E-01
  4.670374E-01
  4.677693E-01
  4.675799E-01
  4.689518E-01
  4.691829E-01
  4.705834E-01
  4.703755E-01
  4.709345E-01
  4.696860E-01
  4.692910E-01
  4.674461E-01
  4.669704E-01
  4.655481E-01
  4.658245E-01
  4.652251E-01
  4.661609E-01
  4.659358E-01
  4.669802E-01
  4.667153E-01
  4.676995E-01
  4.674129E-01
  4.683751E-01
  4.679668E-01
  4.686250E-01
  4.677348E-01
  4.678459E-01
  4.665235E-01
  4.664818E-01
  4.653566E-01
  4.658046E-01
  4.653003E-01
  4.663047E-01
  4.661391E-01
  4.672045E-01
  4.668621E-01
  4.676212E-01
  4.669703E-01
  4.675217E-01
  4.668188E-01
  4.674749E-01
  4.669881E-01
  4.678925E-01
  4.675898E-01
  4.685226E-01
  4.680336E-01
  4.685650E-01
  4.675302E-01
  4.675040E-01
  4.660587E-01
  4.659033E-01
  4.646736E-01
  4.650476E-01
  4.676558E-01
  4.681479E-01
  4.677731E-01
  4.681650E-01
  4.676921E-01
  4.679889E-01
  4.674235E-01
  4.676355E-01
  4.670044E-01
  4.671859E-01
  4.665813E-01
  4.668760E-01
  4.665027E-01
  4.671620E-01
  4.672586E-01
  4.684018E-01
  4.688507E-01
  4.700588E-01
  4.701861E-01
  4.707043E-01
  4.699254E-01
  4.695662E-01
  4.681913E-01
  4.676824E-01
  4.666221E-01
  4.667641E-01
  4.664738E-01
  4.672822E-01
  4.673982E-01
  4.682972E-01
  4.682264E-01
  4.687582E-01
  4.682538E-01
  4.683855E-01
  4.675849E-01
  4.675617E-01
  4.667564E-01
  4.668649E-01
  4.662962E-01
  4.667011E-01
  4.664320E-01
  4.670760E-01
  4.669259E-01
  4.675294E-01
  4.671795E-01
  4.674759E-01
  4.668097E-01
  4.668989E-01
  4.662306E-01
  4.665558E-01
  4.663109E-01
  4.671213E-01
  4.672646E-01
  4.682327E-01
  4.682467E-01
  4.688429E-01
  4.683707E-01
  4.685280E-01
  4.677950E-01
  4.679219E-01
  4.673516E-01
  4.677354E-01
  4.674068E-01
  4.679425E-01
  4.660644E-01
  4.666672E-01
  4.669699E-01
  4.675740E-01
  4.677300E-01
  4.680726E-01
  4.678922E-01
  4.678690E-01
  4.673493E-01
  4.670819E-01
  4.664855E-01
  4.663637E-01
  4.661472E-01
  4.665899E-01
  4.670098E-01
  4.680043E-01
  4.687296E-01
  4.696622E-01
  4.699204E-01
  4.700495E-01
  4.693367E-01
  4.685559E-01
  4.672164E-01
  4.662360E-01
  4.651414E-01
  4.647408E-01
  4.643721E-01
  4.646544E-01
  4.648059E-01
  4.654228E-01
  4.657708E-01
  4.665034E-01
  4.668994E-01
  4.675682E-01
  4.677239E-01
  4.679536E-01
  4.675376E-01
  4.672135E-01
  4.664394E-01
  4.660760E-01
  4.655870E-01
  4.657132E-01
  4.657248E-01
  4.661797E-01
  4.662522E-01
  4.665228E-01
  4.662846E-01
  4.662725E-01
  4.659026E-01
  4.659586E-01
  4.658247E-01
  4.661971E-01
  4.663554E-01
  4.669074E-01
  4.670801E-01
  4.674718E-01
  4.673409E-01
  4.673520E-01
  4.668540E-01
  4.666057E-01
  4.660287E-01
  4.659093E-01
  4.656396E-01
  4.659276E-01
  4.694557E-01
  4.691925E-01
  4.691206E-01
  4.683689E-01
  4.679689E-01
  4.670775E-01
  4.667050E-01
  4.659616E-01
  4.658094E-01
  4.653239E-01
  4.654513E-01
  4.652685E-01
  4.657312E-01
  4.659184E-01
  4.667629E-01
  4.672853E-01
  4.683290E-01
  4.688204E-01
  4.695447E-01
  4.694442E-01
  4.694086E-01
  4.685524E-01
  4.679530E-01
  4.668648E-01
  4.664116E-01
  4.657893E-01
  4.659843E-01
  4.660253E-01
  4.667499E-01
  4.670888E-01
  4.678436E-01
  4.679657E-01
  4.683228E-01
  4.679635E-01
  4.678674E-01
  4.671890E-01
  4.669841E-01
  4.664326E-01
  4.665537E-01
  4.664340E-01
  4.669642E-01
  4.671002E-01
  4.676376E-01
  4.675064E-01
  4.675618E-01
  4.668707E-01
  4.664677E-01
  4.655852E-01
  4.653505E-01
  4.649761E-01
  4.654538E-01
  4.657856E-01
  4.667484E-01
  4.672020E-01
  4.679071E-01
  4.678406E-01
  4.679708E-01
  4.674933E-01
  4.675224E-01
  4.672723E-01
  4.677455E-01
  4.679640E-01
  4.687375E-01
  4.689681E-01
  4.679197E-01
  4.675656E-01
  4.682852E-01
  4.676182E-01
  4.680122E-01
  4.670678E-01
  4.672583E-01
  4.661853E-01
  4.663217E-01
  4.652845E-01
  4.655770E-01
  4.648400E-01
  4.655682E-01
  4.653469E-01
  4.665741E-01
  4.667222E-01
  4.680922E-01
  4.681019E-01
  4.690551E-01
  4.684320E-01
  4.686494E-01
  4.673313E-01
  4.670378E-01
  4.654982E-01
  4.653085E-01
  4.641530E-01
  4.645216E-01
  4.639741E-01
  4.649009E-01
  4.648097E-01
  4.660749E-01
  4.661928E-01
  4.675060E-01
  4.674635E-01
  4.683824E-01
  4.677532E-01
  4.680211E-01
  4.668607E-01
  4.668859E-01
  4.658445E-01
  4.662844E-01
  4.657684E-01
  4.666176E-01
  4.662258E-01
  4.668747E-01
  4.660613E-01
  4.662614E-01
  4.651699E-01
  4.653828E-01
  4.645964E-01
  4.653026E-01
  4.650395E-01
  4.661492E-01
  4.660750E-01
  4.671365E-01
  4.668191E-01
  4.675273E-01
  4.668492E-01
  4.672871E-01
  4.665004E-01
  4.670162E-01
  4.664610E-01
  4.672770E-01
  4.669808E-01
  4.710892E-01
  4.698105E-01
  4.701774E-01
  4.682375E-01
  4.681949E-01
  4.661438E-01
  4.662580E-01
  4.645536E-01
  4.651137E-01
  4.638776E-01
  4.648786E-01
  4.640324E-01
  4.653675E-01
  4.648016E-01
  4.663610E-01
  4.659498E-01
  4.675678E-01
  4.670874E-01
  4.684871E-01
  4.676471E-01
  4.685933E-01
  4.672903E-01
  4.678663E-01
  4.663753E-01
  4.669942E-01
  4.657700E-01
  4.668189E-01
  4.660896E-01
  4.675851E-01
  4.671493E-01
  4.687092E-01
  4.680790E-01
  4.692155E-01
  4.680246E-01
  4.686024E-01
  4.670081E-01
  4.674587E-01
  4.660606E-01
  4.669810E-01
  4.661869E-01
  4.676547E-01
  4.671654E-01
  4.685749E-01
  4.676522E-01
  4.683621E-01
  4.666785E-01
  4.668061E-01
  4.649178E-01
  4.653078E-01
  4.640934E-01
  4.653830E-01
  4.650377E-01
  4.669251E-01
  4.667616E-01
  4.684133E-01
  4.677345E-01
  4.688143E-01
  4.677319E-01
  4.687201E-01
  4.678689E-01
  4.692883E-01
  4.688627E-01
  4.704948E-01
  4.699387E-01
  4.690713E-01
  4.678692E-01
  4.689019E-01
  4.673871E-01
  4.681310E-01
  4.664152E-01
  4.670653E-01
  4.653474E-01
  4.660642E-01
  4.644765E-01
  4.654014E-01
  4.641136E-01
  4.654179E-01
  4.645376E-01
  4.661990E-01
  4.655478E-01
  4.672617E-01
  4.664808E-01
  4.679153E-01
  4.667603E-01
  4.677904E-01
  4.662669E-01
  4.670262E-01
  4.653780E-01
  4.661807E-01
  4.647304E-01
  4.658401E-01
  4.647470E-01
  4.662134E-01
  4.654428E-01
  4.671720E-01
  4.665686E-01
  4.683142E-01
  4.675201E-01
  4.688513E-01
  4.674817E-01
  4.682244E-01
  4.664430E-01
  4.671029E-01
  4.656052E-01
  4.668049E-01
  4.658820E-01
  4.674512E-01
  4.665374E-01
  4.677536E-01
  4.662738E-01
  4.669427E-01
  4.651496E-01
  4.658541E-01
  4.644274E-01
  4.657041E-01
  4.648853E-01
  4.666558E-01
  4.661269E-01
  4.679594E-01
  4.672913E-01
  4.688405E-01
  4.678191E-01
  4.690281E-01
  4.677581E-01
  4.688631E-01
  4.676374E-01
  4.688803E-01
  4.677906E-01
  4.715805E-01
  4.698550E-01
  4.702573E-01
  4.680371E-01
  4.681812E-01
  4.659703E-01
  4.663524E-01
  4.645255E-01
  4.653459E-01
  4.639397E-01
  4.651235E-01
  4.640120E-01
  4.654271E-01
  4.644935E-01
  4.660399E-01
  4.651923E-01
  4.667764E-01
  4.659130E-01
  4.674250E-01
  4.664383E-01
  4.677924E-01
  4.666432E-01
  4.678678E-01
  4.666570E-01
  4.679094E-01
  4.668155E-01
  4.682499E-01
  4.673581E-01
  4.689555E-01
  4.681243E-01
  4.696259E-01
  4.685168E-01
  4.695801E-01
  4.679509E-01
  4.685390E-01
  4.666225E-01
  4.672232E-01
  4.656549E-01
  4.668737E-01
  4.660345E-01
  4.678845E-01
  4.673830E-01
  4.691582E-01
  4.681713E-01
  4.691797E-01
  4.673661E-01
  4.677351E-01
  4.656643E-01
  4.662385E-01
  4.647772E-01
  4.661917E-01
  4.655725E-01
  4.676207E-01
  4.672985E-01
  4.692917E-01
  4.686518E-01
  4.702198E-01
  4.692099E-01
  4.705762E-01
  4.695608E-01
  4.710539E-01
  4.701701E-01
  4.716616E-01
  4.705504E-01
  4.688447E-01
  4.677473E-01
  4.684395E-01
  4.673265E-01
  4.679763E-01
  4.668222E-01
  4.674342E-01
  4.662301E-01
  4.667741E-01
  4.655096E-01
  4.660541E-01
  4.649031E-01
  4.656891E-01
  4.648671E-01
  4.659864E-01
  4.654126E-01
  4.666375E-01
  4.660198E-01
  4.670891E-01
  4.662642E-01
  4.671335E-01
  4.661597E-01
  4.669562E-01
  4.659909E-01
  4.668624E-01
  4.660065E-01
  4.669837E-01
  4.662040E-01
  4.672275E-01
  4.664876E-01
  4.675689E-01
  4.668997E-01
  4.680166E-01
  4.672747E-01
  4.681599E-01
  4.670487E-01
  4.675372E-01
  4.661653E-01
  4.666700E-01
  4.656317E-01
  4.666913E-01
  4.662280E-01
  4.676618E-01
  4.672288E-01
  4.683458E-01
  4.673814E-01
  4.679558E-01
  4.666235E-01
  4.671043E-01