# vtk DataFile Version 2.0
title
ASCII
DATASET STRUCTURED_GRID
DIMENSIONS   64   64    1
POINTS   4096  float
  0.000000E+00  0.000000E+00  0.000000E+00
  0.000000E+00  3.906250E-01  0.000000E+00
  0.000000E+00  7.812500E-01  0.000000E+00
  0.000000E+00  1.171875E+00  0.000000E+00
  0.000000E+00  1.562500E+00  0.000000E+00
  0.000000E+00  1.953125E+00  0.000000E+00
  0.000000E+00  2.343750E+00  0.000000E+00
  0.000000E+00  2.734375E+00  0.000000E+00
  0.000000E+00  3.125000E+00  0.000000E+00
  0.000000E+00  3.515625E+00  0.000000E+00
  0.000000E+00  3.906250E+00  0.000000E+00
  0.000000E+00  4.296875E+00  0.000000E+00
  0.000000E+00  4.687500E+00  0.000000E+00
  0.000000E+00  5.078125E+00  0.000000E+00
  0.000000E+00  5.468750E+00  0.000000E+00
  0.000000E+00  5.859375E+00  0.000000E+00
  0.000000E+00  6.250000E+00  0.000000E+00
  0.000000E+00  6.640625E+00  0.000000E+00
  0.000000E+00  7.031250E+00  0.000000E+00
  0.000000E+00  7.421875E+00  0.000000E+00
  0.000000E+00  7.812500E+00  0.000000E+00
  0.000000E+00  8.203125E+00  0.000000E+00
  0.000000E+00  8.593750E+00  0.000000E+00
  0.000000E+00  8.984375E+00  0.000000E+00
  0.000000E+00  9.375000E+00  0.000000E+00
  0.000000E+00  9.765625E+00  0.000000E+00
  0.000000E+00  1.015625E+01  0.000000E+00
  0.000000E+00  1.054688E+01  0.000000E+00
  0.000000E+00  1.093750E+01  0.000000E+00
  0.000000E+00  1.132812E+01  0.000000E+00
  0.000000E+00  1.171875E+01  0.000000E+00
  0.000000E+00  1.210938E+01  0.000000E+00
  0.000000E+00  1.250000E+01  0.000000E+00
  0.000000E+00  1.289062E+01  0.000000E+00
  0.000000E+00  1.328125E+01  0.000000E+00
  0.000000E+00  1.367188E+01  0.000000E+00
  0.000000E+00  1.406250E+01  0.000000E+00
  0.000000E+00  1.445312E+01  0.000000E+00
  0.000000E+00  1.484375E+01  0.000000E+00
  0.000000E+00  1.523438E+01  0.000000E+00
  0.000000E+00  1.562500E+01  0.000000E+00
  0.000000E+00  1.601562E+01  0.000000E+00
  0.000000E+00  1.640625E+01  0.000000E+00
  0.000000E+00  1.679688E+01  0.000000E+00
  0.000000E+00  1.718750E+01  0.000000E+00
  0.000000E+00  1.757812E+01  0.000000E+00
  0.000000E+00  1.796875E+01  0.000000E+00
  0.000000E+00  1.835938E+01  0.000000E+00
  0.000000E+00  1.875000E+01  0.000000E+00
  0.000000E+00  1.914062E+01  0.000000E+00
  0.000000E+00  1.953125E+01  0.000000E+00
  0.000000E+00  1.992188E+01  0.000000E+00
  0.000000E+00  2.031250E+01  0.000000E+00
  0.000000E+00  2.070312E+01  0.000000E+00
  0.000000E+00  2.109375E+01  0.000000E+00
  0.000000E+00  2.148438E+01  0.000000E+00
  0.000000E+00  2.187500E+01  0.000000E+00
  0.000000E+00  2.226562E+01  0.000000E+00
  0.000000E+00  2.265625E+01  0.000000E+00
  0.000000E+00  2.304688E+01  0.000000E+00
  0.000000E+00  2.343750E+01  0.000000E+00
  0.000000E+00  2.382812E+01  0.000000E+00
  0.000000E+00  2.421875E+01  0.000000E+00
  0.000000E+00  2.460938E+01  0.000000E+00
  3.906250E-01  0.000000E+00  0.000000E+00
  3.906250E-01  3.906250E-01  0.000000E+00
  3.906250E-01  7.812500E-01  0.000000E+00
  3.906250E-01  1.171875E+00  0.000000E+00
  3.906250E-01  1.562500E+00  0.000000E+00
  3.906250E-01  1.953125E+00  0.000000E+00
  3.906250E-01  2.343750E+00  0.000000E+00
  3.906250E-01  2.734375E+00  0.000000E+00
  3.906250E-01  3.125000E+00  0.000000E+00
  3.906250E-01  3.515625E+00  0.000000E+00
  3.906250E-01  3.906250E+00  0.000000E+00
  3.906250E-01  4.296875E+00  0.000000E+00
  3.906250E-01  4.687500E+00  0.000000E+00
  3.906250E-01  5.078125E+00  0.000000E+00
  3.906250E-01  5.468750E+00  0.000000E+00
  3.906250E-01  5.859375E+00  0.000000E+00
  3.906250E-01  6.250000E+00  0.000000E+00
  3.906250E-01  6.640625E+00  0.000000E+00
  3.906250E-01  7.031250E+00  0.000000E+00
  3.906250E-01  7.421875E+00  0.000000E+00
  3.906250E-01  7.812500E+00  0.000000E+00
  3.906250E-01  8.203125E+00  0.000000E+00
  3.906250E-01  8.593750E+00  0.000000E+00
  3.906250E-01  8.984375E+00  0.000000E+00
  3.906250E-01  9.375000E+00  0.000000E+00
  3.906250E-01  9.765625E+00  0.000000E+00
  3.906250E-01  1.015625E+01  0.000000E+00
  3.906250E-01  1.054688E+01  0.000000E+00
  3.906250E-01  1.093750E+01  0.000000E+00
  3.906250E-01  1.132812E+01  0.000000E+00
  3.906250E-01  1.171875E+01  0.000000E+00
  3.906250E-01  1.210938E+01  0.000000E+00
  3.906250E-01  1.250000E+01  0.000000E+00
  3.906250E-01  1.289062E+01  0.000000E+00
  3.906250E-01  1.328125E+01  0.000000E+00
  3.906250E-01  1.367188E+01  0.000000E+00
  3.906250E-01  1.406250E+01  0.000000E+00
  3.906250E-01  1.445312E+01  0.000000E+00
  3.906250E-01  1.484375E+01  0.000000E+00
  3.906250E-01  1.523438E+01  0.000000E+00
  3.906250E-01  1.562500E+01  0.000000E+00
  3.906250E-01  1.601562E+01  0.000000E+00
  3.906250E-01  1.640625E+01  0.000000E+00
  3.906250E-01  1.679688E+01  0.000000E+00
  3.906250E-01  1.718750E+01  0.000000E+00
  3.906250E-01  1.757812E+01  0.000000E+00
  3.906250E-01  1.796875E+01  0.000000E+00
  3.906250E-01  1.835938E+01  0.000000E+00
  3.906250E-01  1.875000E+01  0.000000E+00
  3.906250E-01  1.914062E+01  0.000000E+00
  3.906250E-01  1.953125E+01  0.000000E+00
  3.906250E-01  1.992188E+01  0.000000E+00
  3.906250E-01  2.031250E+01  0.000000E+00
  3.906250E-01  2.070312E+01  0.000000E+00
  3.906250E-01  2.109375E+01  0.000000E+00
  3.906250E-01  2.148438E+01  0.000000E+00
  3.906250E-01  2.187500E+01  0.000000E+00
  3.906250E-01  2.226562E+01  0.000000E+00
  3.906250E-01  2.265625E+01  0.000000E+00
  3.906250E-01  2.304688E+01  0.000000E+00
  3.906250E-01  2.343750E+01  0.000000E+00
  3.906250E-01  2.382812E+01  0.000000E+00
  3.906250E-01  2.421875E+01  0.000000E+00
  3.906250E-01  2.460938E+01  0.000000E+00
  7.812500E-01  0.000000E+00  0.000000E+00
  7.812500E-01  3.906250E-01  0.000000E+00
  7.812500E-01  7.812500E-01  0.000000E+00
  7.812500E-01  1.171875E+00  0.000000E+00
  7.812500E-01  1.562500E+00  0.000000E+00
  7.812500E-01  1.953125E+00  0.000000E+00
  7.812500E-01  2.343750E+00  0.000000E+00
  7.812500E-01  2.734375E+00  0.000000E+00
  7.812500E-01  3.125000E+00  0.000000E+00
  7.812500E-01  3.515625E+00  0.000000E+00
  7.812500E-01  3.906250E+00  0.000000E+00
  7.812500E-01  4.296875E+00  0.000000E+00
  7.812500E-01  4.687500E+00  0.000000E+00
  7.812500E-01  5.078125E+00  0.000000E+00
  7.812500E-01  5.468750E+00  0.000000E+00
  7.812500E-01  5.859375E+00  0.000000E+00
  7.812500E-01  6.250000E+00  0.000000E+00
  7.812500E-01  6.640625E+00  0.000000E+00
  7.812500E-01  7.031250E+00  0.000000E+00
  7.812500E-01  7.421875E+00  0.000000E+00
  7.812500E-01  7.812500E+00  0.000000E+00
  7.812500E-01  8.203125E+00  0.000000E+00
  7.812500E-01  8.593750E+00  0.000000E+00
  7.812500E-01  8.984375E+00  0.000000E+00
  7.812500E-01  9.375000E+00  0.000000E+00
  7.812500E-01  9.765625E+00  0.000000E+00
  7.812500E-01  1.015625E+01  0.000000E+00
  7.812500E-01  1.054688E+01  0.000000E+00
  7.812500E-01  1.093750E+01  0.000000E+00
  7.812500E-01  1.132812E+01  0.000000E+00
  7.812500E-01  1.171875E+01  0.000000E+00
  7.812500E-01  1.210938E+01  0.000000E+00
  7.812500E-01  1.250000E+01  0.000000E+00
  7.812500E-01  1.289062E+01  0.000000E+00
  7.812500E-01  1.328125E+01  0.000000E+00
  7.812500E-01  1.367188E+01  0.000000E+00
  7.812500E-01  1.406250E+01  0.000000E+00
  7.812500E-01  1.445312E+01  0.000000E+00
  7.812500E-01  1.484375E+01  0.000000E+00
  7.812500E-01  1.523438E+01  0.000000E+00
  7.812500E-01  1.562500E+01  0.000000E+00
  7.812500E-01  1.601562E+01  0.000000E+00
  7.812500E-01  1.640625E+01  0.000000E+00
  7.812500E-01  1.679688E+01  0.000000E+00
  7.812500E-01  1.718750E+01  0.000000E+00
  7.812500E-01  1.757812E+01  0.000000E+00
  7.812500E-01  1.796875E+01  0.000000E+00
  7.812500E-01  1.835938E+01  0.000000E+00
  7.812500E-01  1.875000E+01  0.000000E+00
  7.812500E-01  1.914062E+01  0.000000E+00
  7.812500E-01  1.953125E+01  0.000000E+00
  7.812500E-01  1.992188E+01  0.000000E+00
  7.812500E-01  2.031250E+01  0.000000E+00
  7.812500E-01  2.070312E+01  0.000000E+00
  7.812500E-01  2.109375E+01  0.000000E+00
  7.812500E-01  2.148438E+01  0.000000E+00
  7.812500E-01  2.187500E+01  0.000000E+00
  7.812500E-01  2.226562E+01  0.000000E+00
  7.812500E-01  2.265625E+01  0.000000E+00
  7.812500E-01  2.304688E+01  0.000000E+00
  7.812500E-01  2.343750E+01  0.000000E+00
  7.812500E-01  2.382812E+01  0.000000E+00
  7.812500E-01  2.421875E+01  0.000000E+00
  7.812500E-01  2.460938E+01  0.000000E+00
  1.171875E+00  0.000000E+00  0.000000E+00
  1.171875E+00  3.906250E-01  0.000000E+00
  1.171875E+00  7.812500E-01  0.000000E+00
  1.171875E+00  1.171875E+00  0.000000E+00
  1.171875E+00  1.562500E+00  0.000000E+00
  1.171875E+00  1.953125E+00  0.000000E+00
  1.171875E+00  2.343750E+00  0.000000E+00
  1.171875E+00  2.734375E+00  0.000000E+00
  1.171875E+00  3.125000E+00  0.000000E+00
  1.171875E+00  3.515625E+00  0.000000E+00
  1.171875E+00  3.906250E+00  0.000000E+00
  1.171875E+00  4.296875E+00  0.000000E+00
  1.171875E+00  4.687500E+00  0.000000E+00
  1.171875E+00  5.078125E+00  0.000000E+00
  1.171875E+00  5.468750E+00  0.000000E+00
  1.171875E+00  5.859375E+00  0.000000E+00
  1.171875E+00  6.250000E+00  0.000000E+00
  1.171875E+00  6.640625E+00  0.000000E+00
  1.171875E+00  7.031250E+00  0.000000E+00
  1.171875E+00  7.421875E+00  0.000000E+00
  1.171875E+00  7.812500E+00  0.000000E+00
  1.171875E+00  8.203125E+00  0.000000E+00
  1.171875E+00  8.593750E+00  0.000000E+00
  1.171875E+00  8.984375E+00  0.000000E+00
  1.171875E+00  9.375000E+00  0.000000E+00
  1.171875E+00  9.765625E+00  0.000000E+00
  1.171875E+00  1.015625E+01  0.000000E+00
  1.171875E+00  1.054688E+01  0.000000E+00
  1.171875E+00  1.093750E+01  0.000000E+00
  1.171875E+00  1.132812E+01  0.000000E+00
  1.171875E+00  1.171875E+01  0.000000E+00
  1.171875E+00  1.210938E+01  0.000000E+00
  1.171875E+00  1.250000E+01  0.000000E+00
  1.171875E+00  1.289062E+01  0.000000E+00
  1.171875E+00  1.328125E+01  0.000000E+00
  1.171875E+00  1.367188E+01  0.000000E+00
  1.171875E+00  1.406250E+01  0.000000E+00
  1.171875E+00  1.445312E+01  0.000000E+00
[...]
POINT_DATA   4096
SCALARS CON  float  1
LOOKUP_TABLE default
  4.695100E-01
  4.688029E-01
  4.716817E-01
  4.700958E-01
  4.717630E-01
  4.692177E-01
  4.705311E-01
  4.682147E-01
  4.700199E-01
  4.680826E-01
  4.699627E-01
  4.678804E-01
  4.696574E-01
  4.677465E-01
  4.700030E-01
  4.686848E-01
  4.713401E-01
  4.699805E-01
  4.720919E-01
  4.698220E-01
  4.709132E-01
  4.677850E-01
  4.683891E-01
  4.652558E-01
  4.663349E-01
  4.640335E-01
  4.660696E-01
  4.645692E-01
  4.670289E-01
  4.655224E-01
  4.676971E-01
  4.658971E-01
  4.679952E-01
  4.663744E-01
  4.687371E-01
  4.672019E-01
  4.692872E-01
  4.671250E-01
  4.684351E-01
  4.656236E-01
  4.666246E-01
  4.639310E-01
  4.654517E-01
  4.635940E-01
  4.661466E-01
  4.653424E-01
  4.687185E-01
  4.682187E-01
  4.711793E-01
  4.695872E-01
  4.711406E-01
  4.684082E-01
  4.696250E-01
  4.675522E-01
  4.701212E-01
  4.694033E-01
  4.725920E-01
  4.713585E-01
  4.730533E-01
  4.699938E-01
  4.703470E-01
  4.670224E-01
  4.682807E-01
  4.666007E-01
  4.714184E-01
  4.711399E-01
  4.728573E-01
  4.713849E-01
  4.716700E-01
  4.691285E-01
  4.691347E-01
  4.671597E-01
  4.682499E-01
  4.673541E-01
  4.690834E-01
  4.682513E-01
  4.696627E-01
  4.684955E-01
  4.698512E-01
  4.689628E-01
  4.707293E-01
  4.700605E-01
  4.716094E-01
  4.702584E-01
  4.708642E-01
  4.686341E-01
  4.687159E-01
  4.664624E-01
  4.669961E-01
  4.655204E-01
  4.669523E-01
  4.662842E-01
  4.682484E-01
  4.677094E-01
  4.693702E-01
  4.681969E-01
  4.691115E-01
  4.673419E-01
  4.680025E-01
  4.663520E-01
  4.673596E-01
  4.660417E-01
  4.671591E-01
  4.656666E-01
  4.664445E-01
  4.646882E-01
  4.655192E-01
  4.642559E-01
  4.659574E-01
  4.657007E-01
  4.682027E-01
  4.682258E-01
  4.703451E-01
  4.694557E-01
  4.705300E-01
  4.689703E-01
  4.701117E-01
  4.693520E-01
  4.716120E-01
  4.716577E-01
  4.738957E-01
  4.729816E-01
  4.736828E-01
  4.713020E-01
  4.712189E-01
  4.690342E-01
  4.700007E-01
  4.692476E-01
  4.678197E-01
  4.691722E-01
  4.707879E-01
  4.710316E-01
  4.709761E-01
  4.697605E-01
  4.690315E-01
  4.680549E-01
  4.681620E-01
  4.680940E-01
  4.687565E-01
  4.687683E-01
  4.692169E-01
  4.690339E-01
  4.695297E-01
  4.696367E-01
  4.704617E-01
  4.706632E-01
  4.711628E-01
  4.706171E-01
  4.701252E-01
  4.686218E-01
  4.674800E-01
  4.658180E-01
  4.650515E-01
  4.641902E-01
  4.644211E-01
  4.644773E-01
  4.653210E-01
  4.656002E-01
  4.663588E-01
  4.664335E-01
  4.670452E-01
  4.670882E-01
  4.676936E-01
  4.675879E-01
  4.677784E-01
  4.670065E-01
  4.664430E-01
  4.650713E-01
  4.642804E-01
  4.631713E-01
  4.631239E-01
  4.631172E-01
  4.643224E-01
  4.654481E-01
  4.673734E-01
  4.685685E-01
  4.698356E-01
  4.698218E-01
  4.697611E-01
  4.688508E-01
  4.687474E-01
  4.687027E-01
  4.699726E-01
  4.710992E-01
  4.726505E-01
  4.728558E-01
  4.725325E-01
  4.706349E-01
  4.688593E-01
  4.667923E-01
  4.662250E-01
  4.662556E-01
  4.692879E-01
  4.710702E-01
  4.711934E-01
  4.716154E-01
  4.700009E-01
  4.690188E-01
  4.669141E-01
  4.665318E-01
  4.658082E-01
  4.669604E-01
  4.673022E-01
  4.687381E-01
  4.686981E-01
  4.695103E-01
  4.690613E-01
  4.699047E-01
  4.698150E-01
  4.709951E-01
  4.708583E-01
  4.714534E-01
  4.703289E-01
  4.698748E-01
  4.680056E-01
  4.673366E-01
  4.658044E-01
  4.658844E-01
  4.652998E-01
  4.663097E-01
  4.664463E-01
  4.678162E-01
  4.678677E-01
  4.687398E-01
  4.680532E-01
  4.682157E-01
  4.670992E-01
  4.672189E-01
  4.663524E-01
  4.667773E-01
  4.660379E-01
  4.663295E-01
  4.653183E-01
  4.654518E-01
  4.646256E-01
  4.653538E-01
  4.653877E-01
  4.669451E-01
  4.674586E-01
  4.689442E-01
  4.688453E-01
  4.694209E-01
  4.685148E-01
  4.687810E-01
  4.682576E-01
  4.694602E-01
  4.699784E-01
  4.717673E-01
  4.720267E-01
  4.727056E-01
  4.714015E-01
  4.706830E-01
  4.687083E-01
  4.683106E-01
  4.675206E-01
  4.687102E-01
  4.656605E-01
  4.686644E-01
  4.686680E-01
  4.705666E-01
  4.688564E-01
  4.692040E-01
  4.667368E-01
  4.673297E-01
  4.658423E-01
  4.675964E-01
  4.669275E-01
  4.689205E-01
  4.680292E-01
  4.696769E-01
  4.686400E-01
  4.704527E-01
  4.697408E-01
  4.717318E-01
  4.707725E-01
  4.719962E-01
  4.698941E-01
  4.699207E-01
  4.669296E-01
  4.666398E-01
  4.639823E-01
  4.645531E-01
  4.630174E-01
  4.646641E-01
  4.639189E-01
  4.659735E-01
  4.653088E-01
  4.672659E-01
  4.664722E-01
  4.683276E-01
  4.674066E-01
  4.689936E-01
  4.675781E-01
  4.684698E-01
  4.663140E-01
  4.666546E-01
  4.643526E-01
  4.650568E-01
  4.635753E-01
  4.653610E-01
  4.649432E-01
  4.674919E-01
  4.673253E-01
  4.695316E-01
  4.685131E-01
  4.696125E-01
  4.676072E-01
  4.682213E-01
  4.664620E-01
  4.679967E-01
  4.674595E-01
  4.699522E-01
  4.695933E-01
  4.712720E-01
  4.693315E-01
  4.692593E-01
  4.661272E-01
  4.659640E-01
  4.639462E-01
  4.657029E-01
  4.674605E-01
  4.701638E-01
  4.690266E-01
  4.706175E-01
  4.680110E-01
  4.683640E-01
  4.652892E-01
  4.661636E-01
  4.643774E-01
  4.667461E-01
  4.660487E-01
  4.687523E-01
  4.677080E-01
  4.697931E-01
  4.683387E-01
  4.704808E-01
  4.694442E-01
  4.719750E-01
  4.708734E-01
  4.726872E-01
  4.703647E-01
  4.708679E-01
  4.676075E-01
  4.678405E-01
  4.650070E-01
  4.661726E-01
  4.644901E-01
  4.667534E-01
  4.659078E-01
  4.686068E-01
  4.677272E-01
  4.699559E-01
  4.683312E-01
  4.698011E-01
  4.676632E-01
  4.689942E-01
  4.670225E-01
  4.686082E-01
  4.667611E-01
  4.682675E-01
  4.662527E-01
  4.677198E-01
  4.659535E-01
  4.679388E-01
  4.667619E-01
  4.691356E-01
  4.679436E-01
  4.698667E-01
  4.679431E-01
  4.691336E-01
  4.667775E-01
  4.680398E-01
  4.662717E-01
  4.684269E-01
  4.674870E-01
  4.700319E-01
  4.688417E-01
  4.705701E-01
  4.683174E-01
  4.691601E-01
  4.665448E-01
  4.676909E-01
  4.659456E-01
  4.682253E-01
  4.643189E-01
  4.674128E-01
  4.667734E-01
  4.692674E-01
  4.674637E-01
  4.687796E-01
  4.662939E-01
  4.676505E-01
  4.657868E-01
  4.679514E-01
  4.666724E-01
  4.689999E-01
  4.675549E-01
  4.696743E-01
  4.682527E-01
  4.706997E-01
  4.697225E-01
  4.723837E-01
  4.710809E-01
  4.727853E-01
  4.700920E-01
  4.703849E-01
  4.667134E-01
  4.667711E-01
  4.636567E-01
  4.648517E-01
  4.630848E-01
  4.654627E-01
  4.644712E-01
  4.671696E-01
  4.661638E-01
  4.687049E-01
  4.675482E-01
  4.699771E-01
  4.686623E-01
  4.707567E-01
  4.688565E-01
  4.701735E-01
  4.675009E-01
  4.683127E-01
  4.656120E-01
  4.669267E-01
  4.651225E-01
  4.674478E-01
  4.664546E-01
  4.691565E-01
  4.680184E-01
  4.701221E-01
  4.681187E-01
  4.693391E-01
  4.666908E-01
  4.677086E-01
  4.653871E-01
  4.671777E-01
  4.658131E-01
  4.683736E-01
  4.672491E-01
  4.693591E-01
  4.672091E-01
  4.680928E-01
  4.650131E-01
  4.656814E-01
  4.632537E-01
  4.652434E-01
  4.665381E-01
  4.686541E-01
  4.675306E-01
  4.692380E-01
  4.673780E-01
  4.683331E-01
  4.660770E-01
  4.672197E-01
  4.656704E-01
  4.677015E-01
  4.668005E-01
  4.689827E-01
  4.677942E-01
  4.695789E-01
  4.682613E-01
  4.703556E-01
  4.696179E-01
  4.721394E-01
  4.712507E-01
  4.728818E-01
  4.705850E-01
  4.707949E-01
  4.675982E-01
  4.677390E-01
  4.652733E-01
  4.666397E-01
  4.654900E-01
  4.679289E-01
  4.674233E-01
  4.700303E-01
  4.692603E-01
  4.712785E-01
  4.697633E-01
  4.710870E-01
  4.691109E-01
  4.702832E-01
  4.683931E-01
  4.697170E-01
  4.678910E-01
  4.691642E-01
  4.672859E-01
  4.686656E-01
  4.671265E-01
  4.689900E-01
  4.678676E-01
  4.698671E-01
  4.685059E-01
  4.699663E-01
  4.679681E-01
  4.689332E-01
  4.667661E-01
  4.679555E-01
  4.663312E-01
  4.681850E-01
  4.670962E-01
  4.691529E-01
  4.678669E-01
  4.694234E-01
  4.675415E-01
  4.686230E-01
  4.665298E-01
  4.677069E-01
  4.659795E-01
  4.676978E-01
  4.636482E-01
  4.658043E-01
  4.656388E-01
  4.679781E-01
  4.674284E-01
  4.690849E-01
  4.678894E-01
  4.691684E-01
  4.678933E-01
  4.692465E-01
  4.680129E-01
  4.692917E-01
  4.679509E-01
  4.692777E-01
  4.682842E-01
  4.702203E-01
  4.698456E-01
  4.720457E-01
  4.712930E-01
  4.724343E-01
  4.702099E-01
  4.699489E-01
  4.668872E-01
  4.666499E-01
  4.644460E-01
  4.655717E-01
  4.647583E-01
  4.668844E-01
  4.664884E-01
  4.685268E-01
  4.678008E-01
  4.695506E-01
  4.687278E-01
  4.705243E-01
  4.696946E-01
  4.712172E-01
  4.697586E-01
  4.704085E-01
  4.681103E-01
  4.682722E-01
  4.660473E-01
  4.668432E-01
  4.656013E-01
  4.674019E-01
  4.668811E-01
  4.689457E-01
  4.682253E-01
  4.697507E-01
  4.683360E-01
  4.691989E-01
  4.673134E-01
  4.680145E-01
  4.663295E-01
  4.675495E-01
  4.665425E-01
  4.683519E-01
  4.675891E-01
  4.691394E-01
  4.676378E-01
  4.681903E-01
  4.657832E-01
  4.658767E-01
  4.636737E-01
  4.646165E-01
  4.660111E-01
  4.671904E-01
  4.666781E-01
  4.681599E-01
  4.676019E-01
  4.687559E-01
  4.678030E-01
  4.687239E-01
  4.677921E-01
  4.688897E-01
  4.680846E-01
  4.691149E-01
  4.680951E-01
  4.689868E-01
  4.681485E-01
  4.696060E-01
  4.694994E-01
  4.714360E-01
  4.711696E-01
  4.721981E-01
  4.705456E-01
  4.702491E-01
  4.678752E-01
  4.677412E-01
  4.663135E-01
  4.675100E-01
  4.673136E-01
  4.692885E-01
  4.692969E-01
  4.709873E-01
  4.704101E-01
  4.714115E-01
  4.702030E-01
  4.707438E-01
  4.693011E-01
  4.698167E-01
  4.684684E-01
  4.690797E-01
  4.677545E-01
  4.683410E-01
  4.670513E-01
  4.678429E-01
  4.669450E-01
  4.682051E-01
  4.676694E-01
  4.690329E-01
  4.683032E-01
  4.692654E-01
  4.680958E-01
  4.687519E-01
  4.675246E-01
  4.683943E-01
  4.675762E-01
  4.688962E-01
  4.683886E-01
  4.697475E-01
  4.689856E-01
  4.698915E-01
  4.686303E-01
  4.691197E-01
  4.675850E-01
  4.679536E-01
  4.664605E-01
  4.670638E-01
  4.633140E-01
  4.647712E-01
  4.650662E-01
  4.672019E-01
  4.676089E-01
  4.693739E-01
  4.691313E-01
  4.701868E-01
  4.693216E-01
  4.698912E-01
  4.686727E-01
  4.690338E-01
  4.678172E-01
  4.684766E-01
  4.678743E-01
  4.693381E-01
  4.694525E-01
  4.712098E-01
  4.709589E-01
  4.716955E-01
  4.700541E-01
  4.695072E-01
  4.671654E-01
  4.667685E-01
  4.653597E-01
  4.663016E-01
  4.661208E-01
  4.677604E-01
  4.676089E-01
  4.687917E-01
  4.680738E-01
  4.689317E-01
  4.682676E-01
  4.694229E-01
  4.689902E-01
  4.700197E-01
  4.690067E-01
  4.691619E-01
  4.673215E-01
  4.670464E-01
  4.653627E-01
  4.657801E-01
  4.650725E-01
  4.664242E-01
  4.663507E-01
  4.679262E-01
  4.677021E-01
  4.688750E-01
  4.681387E-01
  4.688167E-01
  4.677124E-01
  4.682423E-01
  4.672662E-01
  4.681810E-01
  4.677222E-01
  4.690752E-01
  4.687469E-01
  4.697755E-01
  4.686800E-01
  4.686881E-01
  4.666308E-01
  4.660634E-01
  4.640429E-01
  4.641632E-01
  4.660601E-01
  4.668320E-01
  4.664969E-01
  4.677527E-01
  4.676202E-01
  4.687452E-01
  4.682511E-01
  4.689713E-01
  4.681804E-01
  4.687444E-01
  4.678691E-01
  4.683509E-01
  4.674215E-01
  4.680072E-01
  4.674741E-01
  4.687442E-01
  4.689650E-01
  4.706929E-01
  4.707516E-01
  4.716198E-01
  4.703781E-01
  4.700023E-01
  4.680764E-01
  4.678394E-01
  4.667791E-01
  4.677458E-01
  4.677502E-01
  4.692967E-01
  4.692995E-01
  4.703939E-01
  4.697361E-01
  4.701883E-01
  4.690497E-01
  4.692351E-01
  4.680294E-01
  4.682917E-01
  4.672294E-01
  4.676282E-01
  4.666608E-01
  4.671374E-01
  4.662967E-01
  4.670018E-01
  4.664776E-01
  4.674966E-01
  4.671615E-01
  4.681634E-01
  4.676130E-01
  4.682962E-01
  4.674614E-01
  4.680182E-01
  4.672824E-01
  4.681517E-01
  4.678456E-01
  4.691032E-01
  4.689769E-01
  4.701044E-01
  4.695589E-01
  4.701148E-01
  4.690242E-01
  4.691897E-01
  4.678915E-01
  4.679899E-01
  4.667287E-01
  4.669871E-01
  4.639702E-01
  4.652023E-01
  4.654364E-01
  4.671874E-01
  4.675383E-01
  4.690266E-01
  4.688334E-01
  4.696338E-01
  4.687480E-01
  4.689675E-01
  4.677022E-01
  4.678130E-01
  4.667571E-01
  4.673986E-01
  4.671183E-01
  4.686028E-01
  4.689761E-01
  4.706636E-01
  4.706281E-01
  4.713238E-01
  4.699602E-01
  4.693954E-01
  4.672593E-01
  4.666744E-01
  4.652541E-01
  4.658147E-01
  4.655049E-01
  4.667356E-01
  4.665021E-01
  4.673729E-01
  4.666982E-01
  4.673783E-01
  4.668769E-01
  4.679336E-01
  4.676904E-01
  4.686123E-01
  4.677867E-01
  4.678838E-01
  4.663463E-01
  4.661606E-01
  4.648901E-01
  4.654017E-01
  4.649770E-01
  4.661844E-01
  4.661177E-01
  4.673187E-01
  4.669822E-01
  4.678007E-01
  4.671006E-01
  4.676592E-01
  4.668483E-01
  4.674667E-01
  4.668823E-01
  4.678441E-01
  4.676106E-01
  4.687775E-01
  4.684598E-01
  4.691891E-01
  4.681438E-01
  4.680427E-01
  4.663154E-01
  4.659048E-01
  4.643562E-01
  4.645826E-01
  4.674496E-01
  4.679831E-01
  4.675052E-01
  4.680754E-01
  4.676159E-01
  4.681134E-01
  4.674846E-01
  4.677812E-01
  4.670034E-01
  4.672464E-01
  4.665015E-01
  4.668409E-01
  4.662696E-01
  4.669191E-01
  4.668446E-01
  4.681354E-01
  4.686669E-01
  4.702564E-01
  4.705439E-01
  4.712922E-01
  4.703396E-01
  4.698450E-01
  4.680741E-01
  4.674524E-01
  4.662347E-01
  4.665797E-01
  4.663604E-01
  4.674145E-01
  4.674726E-01
  4.684151E-01
  4.681219E-01
  4.686312E-01
  4.679317E-01
  4.681192E-01
  4.672117E-01
  4.673215E-01
  4.664665E-01
  4.667364E-01
  4.661109E-01
  4.666425E-01
  4.662828E-01
  4.670532E-01
  4.668552E-01
  4.676451E-01
  4.672780E-01
  4.677268E-01
  4.669450E-01
  4.670584E-01
  4.661672E-01
  4.664747E-01
  4.660531E-01
  4.669748E-01
  4.671142E-01
  4.683419E-01
  4.684024E-01
  4.691722E-01
  4.685551E-01
  4.686843E-01
  4.677003E-01
  4.678373E-01
  4.671558E-01
  4.676863E-01
  4.672887E-01
  4.679062E-01
  4.660292E-01
  4.668190E-01
  4.669971E-01
  4.676912E-01
  4.676997E-01
  4.681762E-01
  4.679076E-01
  4.680350E-01
  4.673746E-01
  4.671557E-01
  4.663180E-01
  4.661993E-01
  4.657806E-01
  4.663438E-01
  4.667230E-01
  4.679999E-01
  4.688083E-01
  4.700812E-01
  4.703931E-01
  4.707288E-01
  4.698343E-01
  4.689680E-01
  4.671929E-01
  4.660241E-01
  4.646069E-01
  4.643057E-01
  4.639340E-01
  4.644980E-01
  4.646039E-01
  4.652910E-01
  4.653780E-01
  4.661255E-01
  4.664168E-01
  4.673733E-01
  4.676388E-01
  4.681744E-01
  4.676769E-01
  4.673727E-01
  4.663015E-01
  4.659273E-01
  4.652985E-01
  4.656609E-01
  4.657336E-01
  4.664822E-01
  4.665148E-01
  4.668818E-01
  4.664062E-01
  4.663718E-01
  4.657545E-01
  4.658646E-01
  4.655948E-01
  4.661183E-01
  4.661961E-01
  4.669117E-01
  4.669856E-01
  4.675012E-01
  4.672135E-01
  4.672776E-01
  4.665585E-01
  4.663405E-01
  4.655926E-01
  4.656266E-01
  4.653384E-01
  4.658925E-01
  4.699067E-01
  4.696832E-01
  4.693437E-01
  4.685298E-01
  4.679144E-01
  4.670829E-01
  4.666027E-01
  4.659726E-01
  4.657188E-01
  4.653331E-01
  4.653457E-01
  4.652537E-01
  4.655962E-01
  4.658819E-01
  4.666476E-01
  4.673569E-01
  4.684436E-01
  4.692295E-01
  4.700248E-01
  4.701188E-01
  4.699286E-01
  4.689804E-01
  4.679813E-01
  4.666882E-01
  4.658865E-01
  4.652339E-01
  4.652950E-01
  4.654854E-01
  4.661926E-01
  4.667502E-01
  4.675351E-01
  4.679044E-01
  4.682795E-01
  4.680969E-01
  4.679040E-01
  4.672882E-01
  4.669200E-01
  4.664305E-01
  4.664378E-01
  4.664504E-01
  4.669381E-01
  4.672705E-01
  4.678097E-01
  4.678711E-01
  4.678460E-01
  4.671853E-01
  4.665069E-01
  4.655099E-01
  4.649814E-01
  4.646273E-01
  4.650577E-01
  4.656732E-01
  4.667583E-01
  4.674877E-01
  4.681089E-01
  4.679739E-01
  4.676686E-01
  4.669211E-01
  4.665765E-01
  4.663869E-01
  4.669661E-01
  4.676784E-01
  4.687679E-01
  4.694097E-01
  4.684648E-01
  4.681998E-01
  4.687280E-01
  4.678755E-01
  4.680093E-01
  4.670070E-01
  4.671523E-01
  4.661866E-01
  4.663118E-01
  4.653003E-01
  4.654724E-01
  4.647204E-01
  4.653959E-01
  4.652981E-01
  4.666003E-01
  4.669226E-01
  4.683347E-01
  4.684500E-01
  4.693941E-01
  4.688500E-01
  4.690106E-01
  4.676509E-01
  4.671113E-01
  4.653525E-01
  4.648577E-01
  4.635938E-01
  4.638860E-01
  4.634543E-01
  4.644217E-01
  4.644482E-01
  4.657255E-01
  4.660003E-01
  4.674545E-01
  4.677065E-01
  4.687867E-01
  4.682826E-01
  4.683969E-01
  4.670452E-01
  4.667581E-01
  4.656048E-01
  4.660064E-01
  4.657065E-01
  4.667370E-01
  4.665687E-01
  4.671959E-01
  4.662926E-01
  4.661960E-01
  4.649050E-01
  4.649246E-01
  4.642033E-01
  4.650174E-01
  4.650216E-01
  4.662593E-01
  4.662948E-01
  4.672269E-01
  4.667657E-01
  4.671761E-01
  4.663089E-01
  4.665305E-01
  4.657497E-01
  4.663311E-01
  4.660949E-01
  4.672289E-01
  4.673406E-01
  4.718684E-01
  4.704539E-01
  4.706047E-01
  4.683436E-01
  4.681071E-01
  4.658958E-01
  4.660122E-01
  4.642984E-01
  4.649391E-01
  4.637189E-01
  4.648077E-01
  4.639878E-01
  4.654202E-01
  4.648707E-01
  4.664864E-01
  4.660302E-01
  4.676535E-01
  4.671180E-01
  4.685599E-01
  4.677201E-01
  4.687348E-01
  4.673949E-01
  4.679421E-01
  4.662973E-01
  4.668025E-01
  4.654050E-01
  4.663917E-01
  4.655995E-01
  4.671876E-01
  4.668697E-01
  4.686926E-01
  4.682817E-01
  4.696556E-01
  4.685150E-01
  4.690678E-01
  4.672673E-01
  4.675396E-01
  4.659294E-01
  4.667913E-01
  4.659704E-01
  4.675676E-01
  4.671947E-01
  4.687940E-01
  4.679329E-01
  4.686530E-01
  4.667657E-01
  4.666496E-01
  4.644359E-01
  4.646733E-01
  4.634272E-01
  4.649536E-01
  4.649052E-01
  4.671617E-01
  4.671728E-01
  4.688556E-01
  4.679168E-01
  4.686550E-01
  4.671459E-01
  4.679092E-01
  4.670062E-01
  4.687053E-01
  4.686748E-01
  4.708059E-01
  4.705593E-01
  4.696005E-01
  4.682901E-01
  4.693011E-01
  4.674120E-01
  4.680383E-01
  4.660501E-01
  4.667981E-01
  4.650027E-01
  4.658995E-01
  4.642061E-01
  4.652528E-01
  4.638589E-01
  4.653651E-01
  4.644788E-01
  4.663651E-01
  4.656001E-01
  4.673426E-01
  4.662811E-01
  4.677187E-01
  4.664207E-01
  4.676657E-01
  4.661478E-01
  4.671220E-01
  4.653551E-01
  4.662292E-01
  4.645961E-01
  4.658121E-01
  4.646119E-01
  4.662321E-01
  4.653615E-01
  4.672608E-01
  4.666351E-01
  4.686772E-01
  4.679467E-01
  4.695149E-01
  4.679690E-01
  4.686078E-01
  4.663690E-01
  4.668546E-01
  4.650915E-01
  4.664914E-01
  4.656870E-01
  4.676694E-01
  4.668164E-01
  4.681449E-01
  4.663227E-01
  4.667866E-01
  4.645667E-01
  4.652504E-01
  4.637590E-01
  4.653857E-01
  4.647229E-01
  4.668444E-01
  4.662968E-01
  4.682463E-01
  4.673764E-01
  4.689553E-01
  4.677175E-01
  4.689709E-01
  4.675166E-01
  4.687426E-01
  4.674785E-01
  4.690279E-01
  4.680328E-01
  4.720296E-01
  4.700375E-01
  4.704669E-01
  4.678618E-01
  4.680170E-01
  4.654943E-01
  4.660049E-01
  4.639825E-01
  4.650247E-01
  4.634968E-01
  4.649684E-01
  4.637920E-01
  4.655191E-01
  4.644789E-01
  4.662146E-01
  4.650833E-01
  4.666918E-01
  4.654689E-01
  4.670625E-01
  4.658882E-01
  4.675388E-01
  4.663736E-01
  4.679659E-01
  4.667038E-01
  4.682158E-01
  4.669376E-01
  4.685182E-01
  4.673853E-01
  4.691544E-01
  4.681898E-01
  4.700106E-01
  4.688739E-01
  4.702379E-01
  4.684097E-01
  4.690293E-01
  4.666635E-01
  4.671780E-01
  4.652239E-01
  4.665690E-01
  4.656225E-01
  4.678534E-01
  4.674060E-01
  4.695860E-01
  4.685198E-01
  4.696622E-01
  4.674366E-01
  4.676652E-01
  4.650841E-01
  4.656484E-01
  4.639894E-01
  4.657645E-01
  4.652383E-01
  4.677716E-01
  4.674927E-01
  4.697986E-01
  4.689810E-01
  4.706576E-01
  4.693291E-01
  4.707560E-01
  4.694754E-01
  4.711635E-01
  4.701773E-01
  4.719833E-01
  4.707866E-01
  4.688732E-01
  4.676883E-01
  4.685828E-01
  4.671952E-01
  4.678996E-01
  4.664530E-01
  4.672162E-01
  4.658404E-01
  4.665957E-01
  4.651443E-01
  4.658674E-01
  4.645505E-01
  4.656060E-01
  4.647173E-01
  4.661178E-01
  4.653499E-01
  4.666361E-01
  4.656385E-01
  4.667399E-01
  4.656941E-01
  4.668591E-01
  4.658923E-01
  4.670762E-01
  4.660728E-01
  4.672275E-01
  4.662488E-01
  4.674613E-01
  4.665085E-01
  4.676793E-01
  4.666613E-01
  4.678381E-01
  4.669486E-01
  4.683065E-01
  4.674752E-01
  4.686021E-01
  4.672312E-01
  4.676956E-01
  4.658583E-01
  4.663362E-01
  4.650730E-01
  4.664981E-01
  4.661734E-01
  4.681305E-01
  4.677068E-01
  4.689860E-01
  4.676034E-01
  4.680377E-01
  4.662311E-01
  4.667555E-01