# vtk DataFile Version 2.0
title
ASCII
DATASET STRUCTURED_GRID
DIMENSIONS   64   64    1
POINTS   4096  float
  0.000000E+00  0.000000E+00  0.000000E+00
  0.000000E+00  3.906250E-01  0.000000E+00
  0.000000E+00  7.812500E-01  0.000000E+00
  0.000000E+00  1.171875E+00  0.000000E+00
  0.000000E+00  1.562500E+00  0.000000E+00
  0.000000E+00  1.953125E+00  0.000000E+00
  0.000000E+00  2.343750E+00  0.000000E+00
  0.000000E+00  2.734375E+00  0.000000E+00
  0.000000E+00  3.125000E+00  0.000000E+00
  0.000000E+00  3.515625E+00  0.000000E+00
  0.000000E+00  3.906250E+00  0.000000E+00
  0.000000E+00  4.296875E+00  0.000000E+00
  0.000000E+00  4.687500E+00  0.000000E+00
  0.000000E+00  5.078125E+00  0.000000E+00
  0.000000E+00  5.468750E+00  0.000000E+00
  0.000000E+00  5.859375E+00  0.000000E+00
  0.000000E+00  6.250000E+00  0.000000E+00
  0.000000E+00  6.640625E+00  0.000000E+00
  0.000000E+00  7.031250E+00  0.000000E+00
  0.000000E+00  7.421875E+00  0.000000E+00
  0.000000E+00  7.812500E+00  0.000000E+00
  0.000000E+00  8.203125E+00  0.000000E+00
  0.000000E+00  8.593750E+00  0.000000E+00
  0.000000E+00  8.984375E+00  0.000000E+00
  0.000000E+00  9.375000E+00  0.000000E+00
  0.000000E+00  9.765625E+00  0.000000E+00
  0.000000E+00  1.015625E+01  0.000000E+00
  0.000000E+00  1.054688E+01  0.000000E+00
  0.000000E+00  1.093750E+01  0.000000E+00
  0.000000E+00  1.132812E+01  0.000000E+00
  0.000000E+00  1.171875E+01  0.000000E+00
  0.000000E+00  1.210938E+01  0.000000E+00
  0.000000E+00  1.250000E+01  0.000000E+00
  0.000000E+00  1.289062E+01  0.000000E+00
  0.000000E+00  1.328125E+01  0.000000E+00
  0.000000E+00  1.367188E+01  0.000000E+00
  0.000000E+00  1.406250E+01  0.000000E+00
  0.000000E+00  1.445312E+01  0.000000E+00
  0.000000E+00  1.484375E+01  0.000000E+00
  0.000000E+00  1.523438E+01  0.000000E+00
  0.000000E+00  1.562500E+01  0.000000E+00
  0.000000E+00  1.601562E+01  0.000000E+00
  0.000000E+00  1.640625E+01  0.000000E+00
  0.000000E+00  1.679688E+01  0.000000E+00
  0.000000E+00  1.718750E+01  0.000000E+00
  0.000000E+00  1.757812E+01  0.000000E+00
  0.000000E+00  1.796875E+01  0.000000E+00
  0.000000E+00  1.835938E+01  0.000000E+00
  0.000000E+00  1.875000E+01  0.000000E+00
  0.000000E+00  1.914062E+01  0.000000E+00
  0.000000E+00  1.953125E+01  0.000000E+00
  0.000000E+00  1.992188E+01  0.000000E+00
  0.000000E+00  2.031250E+01  0.000000E+00
  0.000000E+00  2.070312E+01  0.000000E+00
  0.000000E+00  2.109375E+01  0.000000E+00
  0.000000E+00  2.148438E+01  0.000000E+00
  0.000000E+00  2.187500E+01  0.000000E+00
  0.000000E+00  2.226562E+01  0.000000E+00
  0.000000E+00  2.265625E+01  0.000000E+00
  0.000000E+00  2.304688E+01  0.000000E+00
  0.000000E+00  2.343750E+01  0.000000E+00
  0.000000E+00  2.382812E+01  0.000000E+00
  0.000000E+00  2.421875E+01  0.000000E+00
  0.000000E+00  2.460938E+01  0.000000E+00
  3.906250E-01  0.000000E+00  0.000000E+00
  3.906250E-01  3.906250E-01  0.000000E+00
  3.906250E-01  7.812500E-01  0.000000E+00
  3.906250E-01  1.171875E+00  0.000000E+00
  3.906250E-01  1.562500E+00  0.000000E+00
  3.906250E-01  1.953125E+00  0.000000E+00
  3.906250E-01  2.343750E+00  0.000000E+00
  3.906250E-01  2.734375E+00  0.000000E+00
  3.906250E-01  3.125000E+00  0.000000E+00
  3.906250E-01  3.515625E+00  0.000000E+00
  3.906250E-01  3.906250E+00  0.000000E+00
  3.906250E-01  4.296875E+00  0.000000E+00
  3.906250E-01  4.687500E+00  0.000000E+00
  3.906250E-01  5.078125E+00  0.000000E+00
  3.906250E-01  5.468750E+00  0.000000E+00
  3.906250E-01  5.859375E+00  0.000000E+00
  3.906250E-01  6.250000E+00  0.000000E+00
  3.906250E-01  6.640625E+00  0.000000E+00
  3.906250E-01  7.031250E+00  0.000000E+00
  3.906250E-01  7.421875E+00  0.000000E+00
  3.906250E-01  7.812500E+00  0.000000E+00
  3.906250E-01  8.203125E+00  0.000000E+00
  3.906250E-01  8.593750E+00  0.000000E+00
  3.906250E-01  8.984375E+00  0.000000E+00
  3.906250E-01  9.375000E+00  0.000000E+00
  3.906250E-01  9.765625E+00  0.000000E+00
  3.906250E-01  1.015625E+01  0.000000E+00
  3.906250E-01  1.054688E+01  0.000000E+00
  3.906250E-01  1.093750E+01  0.000000E+00
  3.906250E-01  1.132812E+01  0.000000E+00
  3.906250E-01  1.171875E+01  0.000000E+00
  3.906250E-01  1.210938E+01  0.000000E+00
  3.906250E-01  1.250000E+01  0.000000E+00
  3.906250E-01  1.289062E+01  0.000000E+00
  3.906250E-01  1.328125E+01  0.000000E+00
  3.906250E-01  1.367188E+01  0.000000E+00
  3.906250E-01  1.406250E+01  0.000000E+00
  3.906250E-01  1.445312E+01  0.000000E+00
  3.906250E-01  1.484375E+01  0.000000E+00
  3.906250E-01  1.523438E+01  0.000000E+00
  3.906250E-01  1.562500E+01  0.000000E+00
  3.906250E-01  1.601562E+01  0.000000E+00
  3.906250E-01  1.640625E+01  0.000000E+00
  3.906250E-01  1.679688E+01  0.000000E+00
  3.906250E-01  1.718750E+01  0.000000E+00
  3.906250E-01  1.757812E+01  0.000000E+00
  3.906250E-01  1.796875E+01  0.000000E+00
  3.906250E-01  1.835938E+01  0.000000E+00
  3.906250E-01  1.875000E+01  0.000000E+00
  3.906250E-01  1.914062E+01  0.000000E+00
  3.906250E-01  1.953125E+01  0.000000E+00
  3.906250E-01  1.992188E+01  0.000000E+00
  3.906250E-01  2.031250E+01  0.000000E+00
  3.906250E-01  2.070312E+01  0.000000E+00
  3.906250E-01  2.109375E+01  0.000000E+00
  3.906250E-01  2.148438E+01  0.000000E+00
  3.906250E-01  2.187500E+01  0.000000E+00
  3.906250E-01  2.226562E+01  0.000000E+00
  3.906250E-01  2.265625E+01  0.000000E+00
  3.906250E-01  2.304688E+01  0.000000E+00
  3.906250E-01  2.343750E+01  0.000000E+00
  3.906250E-01  2.382812E+01  0.000000E+00
  3.906250E-01  2.421875E+01  0.000000E+00
  3.906250E-01  2.460938E+01  0.000000E+00
  7.812500E-01  0.000000E+00  0.000000E+00
  7.812500E-01  3.906250E-01  0.000000E+00
  7.812500E-01  7.812500E-01  0.000000E+00
  7.812500E-01  1.171875E+00  0.000000E+00
  7.812500E-01  1.562500E+00  0.000000E+00
  7.812500E-01  1.953125E+00  0.000000E+00
  7.812500E-01  2.343750E+00  0.000000E+00
  7.812500E-01  2.734375E+00  0.000000E+00
  7.812500E-01  3.125000E+00  0.000000E+00
  7.812500E-01  3.515625E+00  0.000000E+00
  7.812500E-01  3.906250E+00  0.000000E+00
  7.812500E-01  4.296875E+00  0.000000E+00
  7.812500E-01  4.687500E+00  0.000000E+00
  7.812500E-01  5.078125E+00  0.000000E+00
  7.812500E-01  5.468750E+00  0.000000E+00
  7.812500E-01  5.859375E+00  0.000000E+00
  7.812500E-01  6.250000E+00  0.000000E+00
  7.812500E-01  6.640625E+00  0.000000E+00
  7.812500E-01  7.031250E+00  0.000000E+00
  7.812500E-01  7.421875E+00  0.000000E+00
  7.812500E-01  7.812500E+00  0.000000E+00
  7.812500E-01  8.203125E+00  0.000000E+00
  7.812500E-01  8.593750E+00  0.000000E+00
  7.812500E-01  8.984375E+00  0.000000E+00
  7.812500E-01  9.375000E+00  0.000000E+00
  7.812500E-01  9.765625E+00  0.000000E+00
  7.812500E-01  1.015625E+01  0.000000E+00
  7.812500E-01  1.054688E+01  0.000000E+00
  7.812500E-01  1.093750E+01  0.000000E+00
  7.812500E-01  1.132812E+01  0.000000E+00
  7.812500E-01  1.171875E+01  0.000000E+00
  7.812500E-01  1.210938E+01  0.000000E+00
  7.812500E-01  1.250000E+01  0.000000E+00
  7.812500E-01  1.289062E+01  0.000000E+00
  7.812500E-01  1.328125E+01  0.000000E+00
  7.812500E-01  1.367188E+01  0.000000E+00
  7.812500E-01  1.406250E+01  0.000000E+00
  7.812500E-01  1.445312E+01  0.000000E+00
  7.812500E-01  1.484375E+01  0.000000E+00
  7.812500E-01  1.523438E+01  0.000000E+00
  7.812500E-01  1.562500E+01  0.000000E+00
  7.812500E-01  1.601562E+01  0.000000E+00
  7.812500E-01  1.640625E+01  0.000000E+00
  7.812500E-01  1.679688E+01  0.000000E+00
  7.812500E-01  1.718750E+01  0.000000E+00
  7.812500E-01  1.757812E+01  0.000000E+00
  7.812500E-01  1.796875E+01  0.000000E+00
  7.812500E-01  1.835938E+01  0.000000E+00
  7.812500E-01  1.875000E+01  0.000000E+00
  7.812500E-01  1.914062E+01  0.000000E+00
  7.812500E-01  1.953125E+01  0.000000E+00
  7.812500E-01  1.992188E+01  0.000000E+00
  7.812500E-01  2.031250E+01  0.000000E+00
  7.812500E-01  2.070312E+01  0.000000E+00
  7.812500E-01  2.109375E+01  0.000000E+00
  7.812500E-01  2.148438E+01  0.000000E+00
  7.812500E-01  2.187500E+01  0.000000E+00
  7.812500E-01  2.226562E+01  0.000000E+00
  7.812500E-01  2.265625E+01  0.000000E+00
  7.812500E-01  2.304688E+01  0.000000E+00
  7.812500E-01  2.343750E+01  0.000000E+00
  7.812500E-01  2.382812E+01  0.000000E+00
  7.812500E-01  2.421875E+01  0.000000E+00
  7.812500E-01  2.460938E+01  0.000000E+00
  1.171875E+00  0.000000E+00  0.000000E+00
  1.171875E+00  3.906250E-01  0.000000E+00
  1.171875E+00  7.812500E-01  0.000000E+00
  1.171875E+00  1.171875E+00  0.000000E+00
  1.171875E+00  1.562500E+00  0.000000E+00
  1.171875E+00  1.953125E+00  0.000000E+00
  1.171875E+00  2.343750E+00  0.000000E+00
  1.171875E+00  2.734375E+00  0.000000E+00
  1.171875E+00  3.125000E+00  0.000000E+00
  1.171875E+00  3.515625E+00  0.000000E+00
  1.171875E+00  3.906250E+00  0.000000E+00
  1.171875E+00  4.296875E+00  0.000000E+00
  1.171875E+00  4.687500E+00  0.000000E+00
  1.171875E+00  5.078125E+00  0.000000E+00
  1.171875E+00  5.468750E+00  0.000000E+00
  1.171875E+00  5.859375E+00  0.000000E+00
  1.171875E+00  6.250000E+00  0.000000E+00
  1.171875E+00  6.640625E+00  0.000000E+00
  1.171875E+00  7.031250E+00  0.000000E+00
  1.171875E+00  7.421875E+00  0.000000E+00
  1.171875E+00  7.812500E+00  0.000000E+00
  1.171875E+00  8.203125E+00  0.000000E+00
  1.171875E+00  8.593750E+00  0.000000E+00
  1.171875E+00  8.984375E+00  0.000000E+00
  1.171875E+00  9.375000E+00  0.000000E+00
  1.171875E+00  9.765625E+00  0.000000E+00
  1.171875E+00  1.015625E+01  0.000000E+00
  1.171875E+00  1.054688E+01  0.000000E+00
  1.171875E+00  1.093750E+01  0.000000E+00
  1.171875E+00  1.132812E+01  0.000000E+00
  1.171875E+00  1.171875E+01  0.000000E+00
  1.171875E+00  1.210938E+01  0.000000E+00
  1.171875E+00  1.250000E+01  0.000000E+00
  1.171875E+00  1.289062E+01  0.000000E+00
  1.171875E+00  1.328125E+01  0.000000E+00
  1.171875E+00  1.367188E+01  0.000000E+00
  1.171875E+00  1.406250E+01  0.000000E+00
  1.171875E+00  1.445312E+01  0.000000E+00
[...]
POINT_DATA   4096
SCALARS CON  float  1
LOOKUP_TABLE default
  4.695056E-01
  4.685223E-01
  4.710343E-01
  4.695757E-01
  4.713225E-01
  4.691416E-01
  4.704563E-01
  4.682035E-01
  4.697093E-01
  4.677389E-01
  4.694840E-01
  4.676777E-01
  4.695704E-01
  4.679740E-01
  4.701607E-01
  4.688697E-01
  4.712314E-01
  4.698450E-01
  4.717771E-01
  4.696803E-01
  4.707815E-01
  4.679474E-01
  4.686000E-01
  4.657176E-01
  4.667155E-01
  4.644525E-01
  4.661557E-01
  4.644962E-01
  4.665821E-01
  4.650725E-01
  4.671594E-01
  4.656254E-01
  4.677521E-01
  4.663251E-01
  4.685416E-01
  4.670652E-01
  4.690072E-01
  4.670380E-01
  4.683790E-01
  4.658760E-01
  4.669268E-01
  4.644951E-01
  4.660018E-01
  4.643316E-01
  4.667393E-01
  4.658898E-01
  4.688148E-01
  4.680187E-01
  4.705028E-01
  4.689088E-01
  4.705194E-01
  4.683073E-01
  4.697972E-01
  4.679954E-01
  4.702155E-01
  4.690881E-01
  4.715563E-01
  4.700650E-01
  4.716580E-01
  4.691323E-01
  4.699772E-01
  4.673219E-01
  4.687195E-01
  4.670681E-01
  4.713502E-01
  4.707664E-01
  4.720891E-01
  4.706969E-01
  4.710841E-01
  4.689883E-01
  4.691533E-01
  4.673590E-01
  4.681852E-01
  4.671354E-01
  4.685382E-01
  4.677806E-01
  4.692373E-01
  4.684427E-01
  4.699127E-01
  4.692256E-01
  4.708184E-01
  4.701191E-01
  4.714368E-01
  4.701757E-01
  4.707527E-01
  4.687743E-01
  4.688738E-01
  4.668054E-01
  4.672308E-01
  4.658090E-01
  4.670192E-01
  4.663094E-01
  4.679807E-01
  4.673849E-01
  4.688332E-01
  4.677861E-01
  4.687233E-01
  4.672729E-01
  4.680194E-01
  4.665962E-01
  4.675010E-01
  4.662357E-01
  4.671914E-01
  4.658453E-01
  4.666608E-01
  4.652511E-01
  4.662106E-01
  4.652059E-01
  4.667662E-01
  4.663866E-01
  4.683834E-01
  4.680905E-01
  4.697951E-01
  4.689623E-01
  4.701247E-01
  4.689998E-01
  4.702575E-01
  4.695606E-01
  4.713460E-01
  4.709700E-01
  4.726388E-01
  4.716751E-01
  4.724766E-01
  4.707029E-01
  4.710823E-01
  4.694464E-01
  4.704559E-01
  4.696615E-01
  4.680206E-01
  4.687756E-01
  4.699238E-01
  4.701354E-01
  4.703335E-01
  4.696060E-01
  4.692208E-01
  4.684034E-01
  4.683330E-01
  4.680099E-01
  4.683883E-01
  4.683523E-01
  4.688751E-01
  4.689386E-01
  4.695992E-01
  4.698357E-01
  4.706051E-01
  4.707436E-01
  4.711061E-01
  4.705340E-01
  4.700131E-01
  4.686031E-01
  4.675188E-01
  4.659777E-01
  4.652267E-01
  4.643808E-01
  4.644900E-01
  4.644515E-01
  4.651525E-01
  4.654301E-01
  4.662142E-01
  4.664421E-01
  4.671346E-01
  4.672601E-01
  4.678006E-01
  4.676525E-01
  4.677527E-01
  4.670278E-01
  4.665319E-01
  4.653625E-01
  4.647376E-01
  4.638510E-01
  4.639105E-01
  4.639868E-01
  4.650768E-01
  4.660023E-01
  4.675389E-01
  4.683858E-01
  4.693497E-01
  4.693277E-01
  4.694422E-01
  4.689133E-01
  4.690589E-01
  4.690659E-01
  4.699802E-01
  4.705796E-01
  4.715434E-01
  4.715034E-01
  4.713022E-01
  4.699933E-01
  4.689244E-01
  4.675143E-01
  4.671702E-01
  4.670343E-01
  4.694579E-01
  4.706203E-01
  4.704561E-01
  4.707605E-01
  4.695435E-01
  4.690078E-01
  4.674768E-01
  4.672456E-01
  4.664839E-01
  4.671736E-01
  4.671650E-01
  4.682554E-01
  4.683057E-01
  4.692733E-01
  4.692100E-01
  4.701743E-01
  4.701745E-01
  4.711162E-01
  4.708460E-01
  4.712048E-01
  4.701237E-01
  4.696532E-01
  4.679733E-01
  4.673242E-01
  4.659471E-01
  4.659993E-01
  4.655305E-01
  4.664624E-01
  4.666337E-01
  4.678347E-01
  4.678828E-01
  4.686557E-01
  4.681342E-01
  4.683769E-01
  4.674991E-01
  4.676026E-01
  4.667508E-01
  4.669390E-01
  4.661354E-01
  4.663084E-01
  4.654836E-01
  4.657372E-01
  4.651868E-01
  4.659196E-01
  4.659562E-01
  4.672070E-01
  4.675085E-01
  4.686672E-01
  4.685555E-01
  4.691560E-01
  4.685909E-01
  4.690573E-01
  4.687517E-01
  4.697561E-01
  4.700010E-01
  4.712653E-01
  4.712805E-01
  4.718338E-01
  4.708837E-01
  4.705747E-01
  4.692028E-01
  4.690837E-01
  4.684394E-01
  4.692902E-01
  4.659944E-01
  4.682306E-01
  4.680122E-01
  4.697270E-01
  4.685556E-01
  4.693033E-01
  4.675169E-01
  4.681699E-01
  4.667398E-01
  4.679684E-01
  4.670778E-01
  4.686554E-01
  4.679181E-01
  4.695542E-01
  4.688909E-01
  4.706458E-01
  4.700636E-01
  4.717114E-01
  4.707049E-01
  4.715896E-01
  4.696038E-01
  4.695287E-01
  4.668669E-01
  4.665935E-01
  4.642642E-01
  4.647510E-01
  4.633953E-01
  4.648265E-01
  4.641990E-01
  4.660628E-01
  4.655996E-01
  4.674480E-01
  4.668753E-01
  4.685542E-01
  4.677272E-01
  4.690183E-01
  4.676518E-01
  4.683061E-01
  4.663374E-01
  4.665951E-01
  4.645828E-01
  4.652133E-01
  4.639371E-01
  4.655045E-01
  4.651360E-01
  4.673475E-01
  4.671881E-01
  4.691205E-01
  4.682870E-01
  4.693754E-01
  4.678224E-01
  4.685795E-01
  4.672094E-01
  4.685836E-01
  4.679885E-01
  4.699214E-01
  4.693527E-01
  4.706700E-01
  4.690106E-01
  4.691564E-01
  4.667104E-01
  4.667933E-01
  4.650682E-01
  4.664025E-01
  4.675867E-01
  4.697406E-01
  4.685575E-01
  4.699913E-01
  4.678961E-01
  4.685801E-01
  4.661887E-01
  4.671354E-01
  4.654456E-01
  4.672529E-01
  4.662805E-01
  4.684768E-01
  4.675661E-01
  4.696494E-01
  4.686403E-01
  4.707412E-01
  4.698157E-01
  4.718976E-01
  4.706703E-01
  4.720940E-01
  4.699473E-01
  4.704294E-01
  4.676051E-01
  4.678898E-01
  4.654139E-01
  4.664917E-01
  4.650322E-01
  4.670871E-01
  4.663402E-01
  4.687109E-01
  4.678671E-01
  4.698196E-01
  4.683979E-01
  4.697893E-01
  4.679567E-01
  4.691385E-01
  4.672627E-01
  4.684829E-01
  4.666493E-01
  4.678920E-01
  4.661026E-01
  4.674842E-01
  4.659762E-01
  4.677571E-01
  4.666603E-01
  4.687154E-01
  4.676327E-01
  4.694098E-01
  4.678462E-01
  4.691249E-01
  4.672555E-01
  4.685653E-01
  4.670713E-01
  4.689567E-01
  4.679938E-01
  4.701201E-01
  4.689693E-01
  4.705130E-01
  4.685864E-01
  4.694532E-01
  4.672142E-01
  4.682643E-01
  4.666437E-01
  4.685121E-01
  4.644865E-01
  4.671212E-01
  4.663676E-01
  4.687518E-01
  4.673289E-01
  4.689418E-01
  4.669522E-01
  4.683713E-01
  4.665421E-01
  4.683180E-01
  4.668521E-01
  4.688804E-01
  4.675561E-01
  4.696980E-01
  4.685397E-01
  4.708974E-01
  4.698931E-01
  4.721703E-01
  4.707124E-01
  4.721497E-01
  4.696162E-01
  4.700162E-01
  4.667821E-01
  4.670263E-01
  4.642203E-01
  4.653377E-01
  4.635950E-01
  4.656963E-01
  4.646691E-01
  4.671573E-01
  4.662437E-01
  4.686813E-01
  4.676421E-01
  4.699022E-01
  4.685932E-01
  4.704348E-01
  4.685468E-01
  4.697214E-01
  4.672296E-01
  4.680424E-01
  4.655647E-01
  4.667974E-01
  4.650507E-01
  4.671321E-01
  4.661196E-01
  4.686204E-01
  4.676033E-01
  4.696879E-01
  4.679756E-01
  4.693049E-01
  4.670207E-01
  4.681535E-01
  4.661175E-01
  4.678516E-01
  4.665339E-01
  4.687996E-01
  4.675723E-01
  4.693926E-01
  4.673056E-01
  4.681589E-01
  4.653760E-01
  4.661009E-01
  4.638450E-01
  4.655879E-01
  4.665220E-01
  4.685299E-01
  4.672946E-01
  4.689657E-01
  4.672104E-01
  4.683994E-01
  4.664059E-01
  4.676983E-01
  4.660956E-01
  4.678928E-01
  4.667108E-01
  4.687272E-01
  4.675809E-01
  4.695743E-01
  4.684826E-01
  4.706524E-01
  4.697632E-01
  4.719676E-01
  4.707643E-01
  4.722546E-01
  4.700701E-01
  4.705915E-01
  4.677631E-01
  4.681818E-01
  4.658282E-01
  4.671505E-01
  4.658626E-01
  4.681281E-01
  4.674470E-01
  4.698892E-01
  4.689857E-01
  4.709314E-01
  4.694264E-01
  4.708245E-01
  4.689310E-01
  4.701291E-01
  4.681854E-01
  4.694124E-01
  4.675197E-01
  4.688071E-01
  4.670159E-01
  4.684901E-01
  4.669823E-01
  4.687868E-01
  4.675532E-01
  4.694623E-01
  4.680967E-01
  4.696584E-01
  4.678430E-01
  4.690192E-01
  4.670371E-01
  4.683428E-01
  4.667501E-01
  4.685631E-01
  4.674013E-01
  4.693976E-01
  4.680908E-01
  4.696560E-01
  4.677806E-01
  4.688392E-01
  4.666974E-01
  4.678237E-01
  4.660611E-01
  4.677458E-01
  4.638354E-01
  4.659535E-01
  4.655011E-01
  4.678061E-01
  4.671226E-01
  4.689496E-01
  4.677512E-01
  4.691833E-01
  4.677646E-01
  4.691175E-01
  4.676974E-01
  4.690942E-01
  4.677861E-01
  4.694114E-01
  4.684608E-01
  4.704977E-01
  4.698482E-01
  4.718797E-01
  4.707868E-01
  4.719541E-01
  4.697660E-01
  4.699159E-01
  4.671022E-01
  4.672141E-01
  4.649511E-01
  4.660140E-01
  4.648064E-01
  4.667468E-01
  4.660734E-01
  4.681957E-01
  4.674646E-01
  4.694381E-01
  4.685635E-01
  4.703990E-01
  4.693142E-01
  4.707796E-01
  4.691427E-01
  4.699570E-01
  4.677407E-01
  4.682385E-01
  4.660961E-01
  4.670636E-01
  4.656622E-01
  4.674310E-01
  4.666673E-01
  4.687448E-01
  4.678996E-01
  4.695571E-01
  4.680958E-01
  4.691320E-01
  4.672312E-01
  4.681421E-01
  4.664656E-01
  4.678691E-01
  4.667704E-01
  4.686048E-01
  4.675893E-01
  4.690716E-01
  4.673424E-01
  4.679727E-01
  4.655530E-01
  4.659196E-01
  4.637894E-01
  4.649337E-01
  4.662121E-01
  4.675595E-01
  4.667798E-01
  4.681979E-01
  4.673066E-01
  4.685140E-01
  4.674239E-01
  4.685274E-01
  4.674439E-01
  4.686151E-01
  4.675910E-01
  4.687828E-01
  4.677806E-01
  4.690817E-01
  4.683393E-01
  4.700199E-01
  4.696300E-01
  4.714260E-01
  4.707474E-01
  4.718311E-01
  4.701840E-01
  4.703454E-01
  4.681379E-01
  4.682978E-01
  4.666472E-01
  4.677328E-01
  4.670822E-01
  4.689564E-01
  4.686999E-01
  4.705331E-01
  4.698864E-01
  4.711404E-01
  4.698970E-01
  4.706695E-01
  4.691253E-01
  4.697743E-01
  4.682338E-01
  4.689518E-01
  4.675052E-01
  4.683392E-01
  4.670554E-01
  4.681210E-01
  4.671256E-01
  4.684776E-01
  4.676782E-01
  4.690584E-01
  4.680954E-01
  4.691705E-01
  4.678733E-01
  4.687171E-01
  4.673896E-01
  4.684264E-01
  4.674492E-01
  4.688638E-01
  4.681472E-01
  4.696005E-01
  4.686733E-01
  4.697218E-01
  4.683100E-01
  4.689266E-01
  4.672457E-01
  4.678186E-01
  4.663239E-01
  4.672608E-01
  4.638229E-01
  4.653278E-01
  4.653002E-01
  4.672829E-01
  4.673319E-01
  4.690480E-01
  4.686126E-01
  4.697636E-01
  4.687915E-01
  4.695057E-01
  4.682453E-01
  4.688632E-01
  4.677365E-01
  4.687266E-01
  4.681530E-01
  4.697350E-01
  4.695876E-01
  4.712285E-01
  4.706615E-01
  4.714505E-01
  4.698126E-01
  4.696290E-01
  4.674226E-01
  4.672499E-01
  4.656094E-01
  4.663468E-01
  4.656556E-01
  4.671100E-01
  4.667686E-01
  4.682389E-01
  4.677305E-01
  4.690196E-01
  4.684065E-01
  4.696404E-01
  4.689108E-01
  4.698557E-01
  4.686367E-01
  4.689850E-01
  4.672462E-01
  4.673448E-01
  4.657409E-01
  4.663408E-01
  4.654604E-01
  4.667939E-01
  4.664565E-01
  4.680190E-01
  4.675783E-01
  4.687824E-01
  4.678644E-01
  4.686237E-01
  4.674220E-01
  4.681342E-01
  4.671262E-01
  4.681995E-01
  4.675813E-01
  4.689054E-01
  4.682559E-01
  4.692051E-01
  4.678942E-01
  4.680673E-01
  4.661034E-01
  4.659706E-01
  4.641772E-01
  4.646769E-01
  4.665170E-01
  4.673888E-01
  4.668993E-01
  4.679515E-01
  4.675094E-01
  4.684814E-01
  4.678727E-01
  4.686468E-01
  4.678533E-01
  4.684786E-01
  4.675846E-01
  4.681819E-01
  4.673783E-01
  4.682316E-01
  4.678527E-01
  4.692169E-01
  4.692657E-01
  4.707728E-01
  4.705383E-01
  4.713404E-01
  4.701560E-01
  4.700580E-01
  4.683220E-01
  4.682009E-01
  4.669612E-01
  4.676693E-01
  4.673102E-01
  4.686851E-01
  4.686190E-01
  4.698927E-01
  4.694281E-01
  4.701625E-01
  4.691726E-01
  4.695052E-01
  4.682835E-01
  4.685453E-01
  4.673727E-01
  4.677567E-01
  4.667474E-01
  4.673251E-01
  4.665397E-01
  4.673632E-01
  4.668138E-01
  4.678100E-01
  4.673155E-01
  4.682229E-01
  4.675217E-01
  4.681828E-01
  4.673001E-01
  4.679334E-01
  4.672097E-01
  4.681469E-01
  4.677676E-01
  4.689606E-01
  4.686455E-01
  4.696736E-01
  4.690043E-01
  4.695870E-01
  4.684960E-01
  4.687720E-01
  4.675348E-01
  4.678266E-01
  4.667419E-01
  4.672873E-01
  4.645114E-01
  4.656495E-01
  4.657794E-01
  4.672997E-01
  4.675034E-01
  4.688070E-01
  4.685735E-01
  4.693179E-01
  4.685108E-01
  4.687716E-01
  4.676643E-01
  4.678810E-01
  4.670196E-01
  4.677450E-01
  4.675519E-01
  4.689323E-01
  4.691747E-01
  4.705933E-01
  4.703964E-01
  4.709620E-01
  4.697058E-01
  4.692991E-01
  4.674367E-01
  4.669536E-01
  4.655307E-01
  4.658211E-01
  4.652366E-01
  4.661877E-01
  4.659632E-01
  4.670000E-01
  4.667156E-01
  4.676847E-01
  4.673869E-01
  4.683528E-01
  4.679522E-01
  4.686233E-01
  4.677366E-01
  4.678468E-01
  4.665126E-01
  4.664617E-01
  4.653272E-01
  4.657771E-01
  4.652777E-01
  4.662946E-01
  4.661374E-01
  4.672122E-01
  4.668714E-01
  4.676328E-01
  4.669784E-01
  4.675293E-01
  4.668216E-01
  4.674775E-01
  4.669881E-01
  4.678969E-01
  4.675981E-01
  4.685418E-01
  4.680601E-01
  4.685997E-01
  4.675632E-01
  4.675321E-01
  4.660715E-01
  4.659018E-01
  4.646547E-01
  4.650201E-01
  4.676444E-01
  4.681412E-01
  4.677597E-01
  4.681618E-01
  4.676878E-01
  4.679974E-01
  4.674294E-01
  4.676499E-01
  4.670111E-01
  4.671967E-01
  4.665806E-01
  4.668754E-01
  4.664873E-01
  4.671465E-01
  4.672338E-01
  4.683887E-01
  4.688432E-01
  4.700746E-01
  4.702096E-01
  4.707411E-01
  4.699508E-01
  4.695849E-01
  4.681862E-01
  4.676708E-01
  4.665984E-01
  4.667504E-01
  4.664615E-01
  4.672850E-01
  4.673984E-01
  4.683032E-01
  4.682204E-01
  4.687522E-01
  4.682350E-01
  4.683701E-01
  4.675619E-01
  4.675470E-01
  4.667373E-01
  4.668549E-01
  4.662810E-01
  4.666937E-01
  4.664190E-01
  4.670724E-01
  4.669198E-01
  4.675357E-01
  4.671840E-01
  4.674896E-01
  4.668150E-01
  4.669057E-01
  4.662237E-01
  4.665504E-01
  4.662975E-01
  4.671189E-01
  4.672636E-01
  4.682477E-01
  4.682609E-01
  4.688642E-01
  4.683793E-01
  4.685342E-01
  4.677855E-01
  4.679142E-01
  4.673367E-01
  4.677299E-01
  4.673970E-01
  4.679398E-01
  4.660581E-01
  4.666745E-01
  4.669704E-01
  4.675838E-01
  4.677310E-01
  4.680834E-01
  4.678956E-01
  4.678819E-01
  4.673516E-01
  4.670882E-01
  4.664755E-01
  4.663550E-01
  4.661241E-01
  4.665749E-01
  4.669907E-01
  4.680043E-01
  4.687344E-01
  4.696901E-01
  4.699501E-01
  4.700919E-01
  4.693647E-01
  4.685792E-01
  4.672126E-01
  4.662244E-01
  4.651108E-01
  4.647176E-01
  4.643450E-01
  4.646425E-01
  4.647877E-01
  4.654106E-01
  4.657438E-01
  4.664814E-01
  4.668710E-01
  4.675579E-01
  4.677171E-01
  4.679654E-01
  4.675427E-01
  4.672217E-01
  4.664287E-01
  4.660657E-01
  4.655657E-01
  4.657064E-01
  4.657197E-01
  4.661942E-01
  4.662639E-01
  4.665429E-01
  4.662896E-01
  4.662780E-01
  4.658920E-01
  4.659532E-01
  4.658106E-01
  4.661947E-01
  4.663475E-01
  4.669110E-01
  4.670756E-01
  4.674749E-01
  4.673318E-01
  4.673469E-01
  4.668342E-01
  4.665900E-01
  4.660018E-01
  4.658928E-01
  4.656192E-01
  4.659233E-01
  4.694788E-01
  4.692219E-01
  4.691352E-01
  4.683817E-01
  4.679666E-01
  4.670780E-01
  4.666959E-01
  4.659597E-01
  4.658003E-01
  4.653226E-01
  4.654424E-01
  4.652666E-01
  4.657210E-01
  4.659155E-01
  4.667545E-01
  4.672899E-01
  4.683353E-01
  4.688453E-01
  4.695718E-01
  4.694831E-01
  4.694365E-01
  4.685762E-01
  4.679527E-01
  4.668548E-01
  4.663801E-01
  4.657570E-01
  4.659422E-01
  4.659929E-01
  4.667154E-01
  4.670691E-01
  4.678246E-01
  4.679622E-01
  4.683184E-01
  4.679705E-01
  4.678673E-01
  4.671940E-01
  4.669778E-01
  4.664303E-01
  4.665425E-01
  4.664321E-01
  4.669598E-01
  4.671105E-01
  4.676479E-01
  4.675293E-01
  4.675773E-01
  4.668876E-01
  4.664657E-01
  4.655773E-01
  4.653243E-01
  4.649533E-01
  4.654278E-01
  4.657783E-01
  4.667471E-01
  4.672178E-01
  4.679160E-01
  4.678468E-01
  4.679511E-01
  4.674610E-01
  4.674686E-01
  4.672238E-01
  4.677005E-01
  4.679467E-01
  4.687351E-01
  4.689905E-01
  4.679456E-01
  4.675988E-01
  4.683108E-01
  4.676362E-01
  4.680161E-01
  4.670662E-01
  4.672500E-01
  4.661793E-01
  4.663129E-01
  4.652778E-01
  4.655656E-01
  4.648304E-01
  4.655569E-01
  4.653426E-01
  4.665734E-01
  4.667315E-01
  4.681052E-01
  4.681231E-01
  4.690771E-01
  4.684578E-01
  4.686694E-01
  4.673464E-01
  4.670378E-01
  4.654871E-01
  4.652821E-01
  4.641219E-01
  4.644855E-01
  4.639427E-01
  4.648701E-01
  4.647858E-01
  4.660534E-01
  4.661824E-01
  4.675048E-01
  4.674790E-01
  4.684060E-01
  4.677831E-01
  4.680418E-01
  4.668709E-01
  4.668785E-01
  4.658310E-01
  4.662687E-01
  4.657652E-01
  4.666250E-01
  4.662461E-01
  4.668935E-01
  4.660746E-01
  4.662571E-01
  4.651535E-01
  4.653543E-01
  4.645702E-01
  4.652807E-01
  4.650314E-01
  4.661478E-01
  4.660810E-01
  4.671374E-01
  4.668148E-01
  4.675085E-01
  4.668212E-01
  4.672473E-01
  4.664608E-01
  4.669790E-01
  4.664399E-01
  4.672713E-01
  4.669965E-01
  4.711330E-01
  4.698479E-01
  4.702062E-01
  4.682467E-01
  4.681924E-01
  4.661269E-01
  4.662389E-01
  4.645301E-01
  4.650960E-01
  4.638608E-01
  4.648706E-01
  4.640265E-01
  4.653696E-01
  4.648034E-01
  4.663674E-01
  4.659526E-01
  4.675735E-01
  4.670900E-01
  4.684946E-01
  4.676528E-01
  4.686030E-01
  4.672947E-01
  4.678691E-01
  4.663671E-01
  4.669807E-01
  4.657451E-01
  4.667923E-01
  4.660589E-01
  4.675628E-01
  4.671340E-01
  4.687114E-01
  4.680924E-01
  4.692433E-01
  4.680533E-01
  4.686308E-01
  4.670228E-01
  4.674641E-01
  4.660514E-01
  4.669698E-01
  4.661739E-01
  4.676531E-01
  4.671718E-01
  4.685950E-01
  4.676737E-01
  4.683833E-01
  4.666836E-01
  4.667964E-01
  4.648865E-01
  4.652681E-01
  4.640493E-01
  4.653529E-01
  4.650224E-01
  4.669326E-01
  4.667789E-01
  4.684360E-01
  4.677434E-01
  4.688074E-01
  4.677008E-01
  4.686781E-01
  4.678215E-01
  4.692563E-01
  4.688492E-01
  4.705097E-01
  4.699699E-01
  4.691010E-01
  4.678917E-01
  4.689278E-01
  4.673913E-01
  4.681309E-01
  4.663949E-01
  4.670491E-01
  4.653208E-01
  4.660487E-01
  4.644536E-01
  4.653902E-01
  4.640962E-01
  4.654149E-01
  4.645310E-01
  4.662063E-01
  4.655466E-01
  4.672672E-01
  4.664720E-01
  4.679118E-01
  4.667464E-01
  4.677880E-01
  4.662584E-01
  4.670292E-01
  4.653715E-01
  4.661818E-01
  4.647199E-01
  4.658381E-01
  4.647359E-01
  4.662130E-01
  4.654356E-01
  4.671791E-01
  4.665744E-01
  4.683403E-01
  4.675470E-01
  4.688928E-01
  4.675098E-01
  4.682484E-01
  4.664389E-01
  4.670918E-01
  4.655772E-01
  4.667913E-01
  4.658733E-01
  4.674686E-01
  4.665560E-01
  4.677804E-01
  4.662782E-01
  4.669370E-01
  4.651163E-01
  4.658201E-01
  4.643849E-01
  4.656810E-01
  4.648671E-01
  4.666604E-01
  4.661308E-01
  4.679761E-01
  4.672973E-01
  4.688517E-01
  4.678150E-01
  4.690272E-01
  4.677431E-01
  4.688567E-01
  4.676263E-01
  4.688885E-01
  4.678014E-01
  4.716119E-01
  4.698698E-01
  4.702753E-01
  4.680295E-01
  4.681738E-01
  4.659406E-01
  4.663304E-01
  4.644897E-01
  4.653256E-01
  4.639118E-01
  4.651151E-01
  4.639979E-01
  4.654318E-01
  4.644887E-01
  4.660472E-01
  4.651824E-01
  4.667724E-01
  4.658898E-01
  4.674109E-01
  4.664119E-01
  4.677836E-01
  4.666289E-01
  4.678739E-01
  4.666561E-01
  4.679242E-01
  4.668175E-01
  4.682629E-01
  4.673571E-01
  4.689687E-01
  4.681300E-01
  4.696528E-01
  4.685398E-01
  4.696213E-01
  4.679778E-01
  4.685694E-01
  4.666249E-01
  4.672221E-01
  4.656287E-01
  4.668561E-01
  4.660096E-01
  4.678856E-01
  4.673876E-01
  4.691895E-01
  4.681958E-01
  4.692123E-01
  4.673713E-01
  4.677329E-01
  4.656298E-01
  4.662042E-01
  4.647281E-01
  4.661644E-01
  4.655487E-01
  4.676284E-01
  4.673091E-01
  4.693241E-01
  4.686725E-01
  4.702476E-01
  4.692153E-01
  4.705853E-01
  4.695519E-01
  4.710586E-01
  4.701684E-01
  4.716820E-01
  4.705660E-01
  4.688517E-01
  4.677460E-01
  4.684498E-01
  4.673200E-01
  4.679745E-01
  4.668025E-01
  4.674235E-01
  4.662074E-01
  4.667642E-01
  4.654882E-01
  4.660446E-01
  4.648826E-01
  4.656834E-01
  4.648538E-01
  4.659884E-01
  4.654029E-01
  4.666357E-01
  4.659999E-01
  4.670758E-01
  4.662378E-01
  4.671228E-01
  4.661447E-01
  4.669620E-01
  4.659931E-01
  4.668832E-01
  4.660203E-01
  4.670124E-01
  4.662210E-01
  4.672537E-01
  4.664975E-01
  4.675868E-01
  4.669051E-01
  4.680370E-01
  4.672879E-01
  4.681868E-01
  4.670588E-01
  4.675468E-01
  4.661473E-01
  4.666515E-01
  4.655987E-01
  4.666797E-01
  4.662227E-01
  4.676875E-01
  4.672546E-01
  4.683834E-01
  4.673955E-01
  4.679642E-01
  4.666036E-01
  4.670867E-01