# vtk DataFile Version 2.0
title
ASCII
DATASET STRUCTURED_GRID
DIMENSIONS   64   64    1
POINTS   4096  float
  0.000000E+00  0.000000E+00  0.000000E+00
  0.000000E+00  3.906250E-01  0.000000E+00
  0.000000E+00  7.812500E-01  0.000000E+00
  0.000000E+00  1.171875E+00  0.000000E+00
  0.000000E+00  1.562500E+00  0.000000E+00
  0.000000E+00  1.953125E+00  0.000000E+00
  0.000000E+00  2.343750E+00  0.000000E+00
  0.000000E+00  2.734375E+00  0.000000E+00
  0.000000E+00  3.125000E+00  0.000000E+00
  0.000000E+00  3.515625E+00  0.000000E+00
  0.000000E+00  3.906250E+00  0.000000E+00
  0.000000E+00  4.296875E+00  0.000000E+00
  0.000000E+00  4.687500E+00  0.000000E+00
  0.000000E+00  5.078125E+00  0.000000E+00
  0.000000E+00  5.468750E+00  0.000000E+00
  0.000000E+00  5.859375E+00  0.000000E+00
  0.000000E+00  6.250000E+00  0.000000E+00
  0.000000E+00  6.640625E+00  0.000000E+00
  0.000000E+00  7.031250E+00  0.000000E+00
  0.000000E+00  7.421875E+00  0.000000E+00
  0.000000E+00  7.812500E+00  0.000000E+00
  0.000000E+00  8.203125E+00  0.000000E+00
  0.000000E+00  8.593750E+00  0.000000E+00
  0.000000E+00  8.984375E+00  0.000000E+00
  0.000000E+00  9.375000E+00  0.000000E+00
  0.000000E+00  9.765625E+00  0.000000E+00
  0.000000E+00  1.015625E+01  0.000000E+00
  0.000000E+00  1.054688E+01  0.000000E+00
  0.000000E+00  1.093750E+01  0.000000E+00
  0.000000E+00  1.132812E+01  0.000000E+00
  0.000000E+00  1.171875E+01  0.000000E+00
  0.000000E+00  1.210938E+01  0.000000E+00
  0.000000E+00  1.250000E+01  0.000000E+00
  0.000000E+00  1.289062E+01  0.000000E+00
  0.000000E+00  1.328125E+01  0.000000E+00
  0.000000E+00  1.367188E+01  0.000000E+00
  0.000000E+00  1.406250E+01  0.000000E+00
  0.000000E+00  1.445312E+01  0.000000E+00
  0.000000E+00  1.484375E+01  0.000000E+00
  0.000000E+00  1.523438E+01  0.000000E+00
  0.000000E+00  1.562500E+01  0.000000E+00
  0.000000E+00  1.601562E+01  0.000000E+00
  0.000000E+00  1.640625E+01  0.000000E+00
  0.000000E+00  1.679688E+01  0.000000E+00
  0.000000E+00  1.718750E+01  0.000000E+00
  0.000000E+00  1.757812E+01  0.000000E+00
  0.000000E+00  1.796875E+01  0.000000E+00
  0.000000E+00  1.835938E+01  0.000000E+00
  0.000000E+00  1.875000E+01  0.000000E+00
  0.000000E+00  1.914062E+01  0.000000E+00
  0.000000E+00  1.953125E+01  0.000000E+00
  0.000000E+00  1.992188E+01  0.000000E+00
  0.000000E+00  2.031250E+01  0.000000E+00
  0.000000E+00  2.070312E+01  0.000000E+00
  0.000000E+00  2.109375E+01  0.000000E+00
  0.000000E+00  2.148438E+01  0.000000E+00
  0.000000E+00  2.187500E+01  0.000000E+00
  0.000000E+00  2.226562E+01  0.000000E+00
  0.000000E+00  2.265625E+01  0.000000E+00
  0.000000E+00  2.304688E+01  0.000000E+00
  0.000000E+00  2.343750E+01  0.000000E+00
  0.000000E+00  2.382812E+01  0.000000E+00
  0.000000E+00  2.421875E+01  0.000000E+00
  0.000000E+00  2.460938E+01  0.000000E+00
  3.906250E-01  0.000000E+00  0.000000E+00
  3.906250E-01  3.906250E-01  0.000000E+00
  3.906250E-01  7.812500E-01  0.000000E+00
  3.906250E-01  1.171875E+00  0.000000E+00
  3.906250E-01  1.562500E+00  0.000000E+00
  3.906250E-01  1.953125E+00  0.000000E+00
  3.906250E-01  2.343750E+00  0.000000E+00
  3.906250E-01  2.734375E+00  0.000000E+00
  3.906250E-01  3.125000E+00  0.000000E+00
  3.906250E-01  3.515625E+00  0.000000E+00
  3.906250E-01  3.906250E+00  0.000000E+00
  3.906250E-01  4.296875E+00  0.000000E+00
  3.906250E-01  4.687500E+00  0.000000E+00
  3.906250E-01  5.078125E+00  0.000000E+00
  3.906250E-01  5.468750E+00  0.000000E+00
  3.906250E-01  5.859375E+00  0.000000E+00
  3.906250E-01  6.250000E+00  0.000000E+00
  3.906250E-01  6.640625E+00  0.000000E+00
  3.906250E-01  7.031250E+00  0.000000E+00
  3.906250E-01  7.421875E+00  0.000000E+00
  3.906250E-01  7.812500E+00  0.000000E+00
  3.906250E-01  8.203125E+00  0.000000E+00
  3.906250E-01  8.593750E+00  0.000000E+00
  3.906250E-01  8.984375E+00  0.000000E+00
  3.906250E-01  9.375000E+00  0.000000E+00
  3.906250E-01  9.765625E+00  0.000000E+00
  3.906250E-01  1.015625E+01  0.000000E+00
  3.906250E-01  1.054688E+01  0.000000E+00
  3.906250E-01  1.093750E+01  0.000000E+00
  3.906250E-01  1.132812E+01  0.000000E+00
  3.906250E-01  1.171875E+01  0.000000E+00
  3.906250E-01  1.210938E+01  0.000000E+00
  3.906250E-01  1.250000E+01  0.000000E+00
  3.906250E-01  1.289062E+01  0.000000E+00
  3.906250E-01  1.328125E+01  0.000000E+00
  3.906250E-01  1.367188E+01  0.000000E+00
  3.906250E-01  1.406250E+01  0.000000E+00
  3.906250E-01  1.445312E+01  0.000000E+00
  3.906250E-01  1.484375E+01  0.000000E+00
  3.906250E-01  1.523438E+01  0.000000E+00
  3.906250E-01  1.562500E+01  0.000000E+00
  3.906250E-01  1.601562E+01  0.000000E+00
  3.906250E-01  1.640625E+01  0.000000E+00
  3.906250E-01  1.679688E+01  0.000000E+00
  3.906250E-01  1.718750E+01  0.000000E+00
  3.906250E-01  1.757812E+01  0.000000E+00
  3.906250E-01  1.796875E+01  0.000000E+00
  3.906250E-01  1.835938E+01  0.000000E+00
  3.906250E-01  1.875000E+01  0.000000E+00
  3.906250E-01  1.914062E+01  0.000000E+00
  3.906250E-01  1.953125E+01  0.000000E+00
  3.906250E-01  1.992188E+01  0.000000E+00
  3.906250E-01  2.031250E+01  0.000000E+00
  3.906250E-01  2.070312E+01  0.000000E+00
  3.906250E-01  2.109375E+01  0.000000E+00
  3.906250E-01  2.148438E+01  0.000000E+00
  3.906250E-01  2.187500E+01  0.000000E+00
  3.906250E-01  2.226562E+01  0.000000E+00
  3.906250E-01  2.265625E+01  0.000000E+00
  3.906250E-01  2.304688E+01  0.000000E+00
  3.906250E-01  2.343750E+01  0.000000E+00
  3.906250E-01  2.382812E+01  0.000000E+00
  3.906250E-01  2.421875E+01  0.000000E+00
  3.906250E-01  2.460938E+01  0.000000E+00
  7.812500E-01  0.000000E+00  0.000000E+00
  7.812500E-01  3.906250E-01  0.000000E+00
  7.812500E-01  7.812500E-01  0.000000E+00
  7.812500E-01  1.171875E+00  0.000000E+00
  7.812500E-01  1.562500E+00  0.000000E+00
  7.812500E-01  1.953125E+00  0.000000E+00
  7.812500E-01  2.343750E+00  0.000000E+00
  7.812500E-01  2.734375E+00  0.000000E+00
  7.812500E-01  3.125000E+00  0.000000E+00
  7.812500E-01  3.515625E+00  0.000000E+00
  7.812500E-01  3.906250E+00  0.000000E+00
  7.812500E-01  4.296875E+00  0.000000E+00
  7.812500E-01  4.687500E+00  0.000000E+00
  7.812500E-01  5.078125E+00  0.000000E+00
  7.812500E-01  5.468750E+00  0.000000E+00
  7.812500E-01  5.859375E+00  0.000000E+00
  7.812500E-01  6.250000E+00  0.000000E+00
  7.812500E-01  6.640625E+00  0.000000E+00
  7.812500E-01  7.031250E+00  0.000000E+00
  7.812500E-01  7.421875E+00  0.000000E+00
  7.812500E-01  7.812500E+00  0.000000E+00
  7.812500E-01  8.203125E+00  0.000000E+00
  7.812500E-01  8.593750E+00  0.000000E+00
  7.812500E-01  8.984375E+00  0.000000E+00
  7.812500E-01  9.375000E+00  0.000000E+00
  7.812500E-01  9.765625E+00  0.000000E+00
  7.812500E-01  1.015625E+01  0.000000E+00
  7.812500E-01  1.054688E+01  0.000000E+00
  7.812500E-01  1.093750E+01  0.000000E+00
  7.812500E-01  1.132812E+01  0.000000E+00
  7.812500E-01  1.171875E+01  0.000000E+00
  7.812500E-01  1.210938E+01  0.000000E+00
  7.812500E-01  1.250000E+01  0.000000E+00
  7.812500E-01  1.289062E+01  0.000000E+00
  7.812500E-01  1.328125E+01  0.000000E+00
  7.812500E-01  1.367188E+01  0.000000E+00
  7.812500E-01  1.406250E+01  0.000000E+00
  7.812500E-01  1.445312E+01  0.000000E+00
  7.812500E-01  1.484375E+01  0.000000E+00
  7.812500E-01  1.523438E+01  0.000000E+00
  7.812500E-01  1.562500E+01  0.000000E+00
  7.812500E-01  1.601562E+01  0.000000E+00
  7.812500E-01  1.640625E+01  0.000000E+00
  7.812500E-01  1.679688E+01  0.000000E+00
  7.812500E-01  1.718750E+01  0.000000E+00
  7.812500E-01  1.757812E+01  0.000000E+00
  7.812500E-01  1.796875E+01  0.000000E+00
  7.812500E-01  1.835938E+01  0.000000E+00
  7.812500E-01  1.875000E+01  0.000000E+00
  7.812500E-01  1.914062E+01  0.000000E+00
  7.812500E-01  1.953125E+01  0.000000E+00
  7.812500E-01  1.992188E+01  0.000000E+00
  7.812500E-01  2.031250E+01  0.000000E+00
  7.812500E-01  2.070312E+01  0.000000E+00
  7.812500E-01  2.109375E+01  0.000000E+00
  7.812500E-01  2.148438E+01  0.000000E+00
  7.812500E-01  2.187500E+01  0.000000E+00
  7.812500E-01  2.226562E+01  0.000000E+00
  7.812500E-01  2.265625E+01  0.000000E+00
  7.812500E-01  2.304688E+01  0.000000E+00
  7.812500E-01  2.343750E+01  0.000000E+00
  7.812500E-01  2.382812E+01  0.000000E+00
  7.812500E-01  2.421875E+01  0.000000E+00
  7.812500E-01  2.460938E+01  0.000000E+00
  1.171875E+00  0.000000E+00  0.000000E+00
  1.171875E+00  3.906250E-01  0.000000E+00
  1.171875E+00  7.812500E-01  0.000000E+00
  1.171875E+00  1.171875E+00  0.000000E+00
  1.171875E+00  1.562500E+00  0.000000E+00
  1.171875E+00  1.953125E+00  0.000000E+00
  1.171875E+00  2.343750E+00  0.000000E+00
  1.171875E+00  2.734375E+00  0.000000E+00
  1.171875E+00  3.125000E+00  0.000000E+00
  1.171875E+00  3.515625E+00  0.000000E+00
  1.171875E+00  3.906250E+00  0.000000E+00
  1.171875E+00  4.296875E+00  0.000000E+00
  1.171875E+00  4.687500E+00  0.000000E+00
  1.171875E+00  5.078125E+00  0.000000E+00
  1.171875E+00  5.468750E+00  0.000000E+00
  1.171875E+00  5.859375E+00  0.000000E+00
  1.171875E+00  6.250000E+00  0.000000E+00
  1.171875E+00  6.640625E+00  0.000000E+00
  1.171875E+00  7.031250E+00  0.000000E+00
  1.171875E+00  7.421875E+00  0.000000E+00
  1.171875E+00  7.812500E+00  0.000000E+00
  1.171875E+00  8.203125E+00  0.000000E+00
  1.171875E+00  8.593750E+00  0.000000E+00
  1.171875E+00  8.984375E+00  0.000000E+00
  1.171875E+00  9.375000E+00  0.000000E+00
  1.171875E+00  9.765625E+00  0.000000E+00
  1.171875E+00  1.015625E+01  0.000000E+00
  1.171875E+00  1.054688E+01  0.000000E+00
  1.171875E+00  1.093750E+01  0.000000E+00
  1.171875E+00  1.132812E+01  0.000000E+00
  1.171875E+00  1.171875E+01  0.000000E+00
  1.171875E+00  1.210938E+01  0.000000E+00
  1.171875E+00  1.250000E+01  0.000000E+00
  1.171875E+00  1.289062E+01  0.000000E+00
  1.171875E+00  1.328125E+01  0.000000E+00
  1.171875E+00  1.367188E+01  0.000000E+00
  1.171875E+00  1.406250E+01  0.000000E+00
  1.171875E+00  1.445312E+01  0.000000E+00
[...]
POINT_DATA   4096
SCALARS CON  float  1
LOOKUP_TABLE default
  4.695499E-01
  4.689515E-01
  4.719737E-01
  4.703040E-01
  4.719131E-01
  4.691973E-01
  4.705297E-01
  4.682225E-01
  4.701990E-01
  4.682875E-01
  4.702086E-01
  4.679650E-01
  4.696632E-01
  4.676111E-01
  4.699266E-01
  4.686294E-01
  4.714327E-01
  4.700704E-01
  4.722265E-01
  4.698427E-01
  4.709163E-01
  4.676690E-01
  4.682779E-01
  4.650479E-01
  4.661596E-01
  4.638246E-01
  4.660040E-01
  4.645902E-01
  4.672485E-01
  4.657669E-01
  4.679831E-01
  4.660470E-01
  4.681179E-01
  4.664115E-01
  4.688558E-01
  4.673038E-01
  4.694434E-01
  4.671667E-01
  4.684406E-01
  4.654932E-01
  4.665046E-01
  4.637359E-01
  4.652884E-01
  4.633342E-01
  4.659069E-01
  4.650685E-01
  4.686161E-01
  4.682566E-01
  4.714682E-01
  4.699108E-01
  4.714411E-01
  4.684383E-01
  4.694817E-01
  4.672557E-01
  4.699898E-01
  4.694930E-01
  4.730449E-01
  4.719460E-01
  4.736863E-01
  4.703816E-01
  4.705198E-01
  4.669098E-01
  4.681216E-01
  4.664341E-01
  4.714408E-01
  4.712892E-01
  4.732080E-01
  4.717040E-01
  4.719533E-01
  4.691882E-01
  4.691216E-01
  4.670593E-01
  4.682963E-01
  4.674774E-01
  4.693669E-01
  4.684786E-01
  4.698600E-01
  4.685006E-01
  4.698124E-01
  4.688324E-01
  4.706998E-01
  4.700403E-01
  4.716934E-01
  4.702688E-01
  4.708740E-01
  4.685151E-01
  4.686201E-01
  4.663122E-01
  4.669392E-01
  4.654399E-01
  4.669646E-01
  4.662748E-01
  4.683551E-01
  4.678230E-01
  4.695962E-01
  4.683699E-01
  4.692963E-01
  4.673799E-01
  4.680143E-01
  4.662532E-01
  4.673212E-01
  4.659768E-01
  4.671852E-01
  4.656242E-01
  4.664000E-01
  4.644786E-01
  4.652555E-01
  4.638477E-01
  4.655921E-01
  4.653487E-01
  4.680741E-01
  4.682481E-01
  4.706066E-01
  4.697176E-01
  4.707601E-01
  4.689507E-01
  4.699934E-01
  4.691679E-01
  4.716692E-01
  4.719376E-01
  4.744721E-01
  4.735683E-01
  4.742116E-01
  4.715326E-01
  4.712592E-01
  4.688380E-01
  4.698063E-01
  4.690552E-01
  4.677127E-01
  4.693549E-01
  4.712187E-01
  4.714686E-01
  4.712883E-01
  4.698093E-01
  4.689189E-01
  4.678681E-01
  4.680971E-01
  4.681633E-01
  4.689788E-01
  4.689925E-01
  4.693994E-01
  4.690756E-01
  4.695004E-01
  4.695368E-01
  4.703976E-01
  4.706078E-01
  4.711658E-01
  4.706077E-01
  4.701424E-01
  4.686079E-01
  4.674885E-01
  4.657946E-01
  4.650493E-01
  4.641633E-01
  4.644395E-01
  4.645023E-01
  4.654014E-01
  4.656532E-01
  4.663976E-01
  4.663818E-01
  4.669688E-01
  4.669753E-01
  4.676405E-01
  4.675584E-01
  4.678092E-01
  4.670080E-01
  4.664336E-01
  4.649758E-01
  4.641417E-01
  4.629308E-01
  4.628364E-01
  4.627485E-01
  4.639746E-01
  4.651443E-01
  4.672467E-01
  4.686079E-01
  4.700636E-01
  4.700786E-01
  4.699627E-01
  4.688509E-01
  4.686137E-01
  4.685085E-01
  4.699460E-01
  4.713097E-01
  4.731474E-01
  4.734482E-01
  4.730657E-01
  4.708730E-01
  4.687788E-01
  4.663999E-01
  4.657465E-01
  4.658524E-01
  4.691531E-01
  4.712346E-01
  4.715379E-01
  4.720407E-01
  4.702543E-01
  4.690339E-01
  4.666399E-01
  4.661679E-01
  4.654848E-01
  4.668760E-01
  4.674166E-01
  4.690161E-01
  4.689304E-01
  4.696372E-01
  4.689883E-01
  4.697497E-01
  4.696226E-01
  4.709131E-01
  4.708521E-01
  4.715469E-01
  4.704032E-01
  4.699541E-01
  4.680329E-01
  4.673950E-01
  4.658423E-01
  4.659414E-01
  4.652822E-01
  4.662637E-01
  4.663346E-01
  4.677442E-01
  4.678063E-01
  4.687375E-01
  4.680003E-01
  4.681214E-01
  4.668942E-01
  4.670107E-01
  4.661592E-01
  4.667166E-01
  4.660455E-01
  4.663991E-01
  4.653016E-01
  4.653519E-01
  4.643871E-01
  4.650959E-01
  4.651300E-01
  4.668143E-01
  4.674272E-01
  4.690614E-01
  4.689953E-01
  4.695756E-01
  4.685284E-01
  4.686818E-01
  4.680413E-01
  4.693136E-01
  4.699685E-01
  4.720019E-01
  4.723788E-01
  4.730881E-01
  4.716040E-01
  4.706794E-01
  4.684409E-01
  4.679162E-01
  4.670614E-01
  4.683846E-01
  4.654890E-01
  4.688597E-01
  4.689858E-01
  4.709714E-01
  4.689965E-01
  4.691279E-01
  4.663284E-01
  4.668972E-01
  4.654149E-01
  4.674474E-01
  4.669097E-01
  4.690978E-01
  4.681231E-01
  4.697506E-01
  4.685205E-01
  4.703424E-01
  4.695639E-01
  4.717064E-01
  4.707674E-01
  4.721465E-01
  4.700034E-01
  4.700986E-01
  4.669900E-01
  4.667205E-01
  4.639286E-01
  4.645305E-01
  4.628917E-01
  4.646093E-01
  4.637918E-01
  4.659242E-01
  4.651683E-01
  4.671743E-01
  4.662759E-01
  4.682002E-01
  4.672254E-01
  4.689407E-01
  4.675094E-01
  4.685258E-01
  4.663085E-01
  4.667056E-01
  4.642827E-01
  4.650210E-01
  4.634449E-01
  4.653276E-01
  4.648852E-01
  4.675782E-01
  4.673945E-01
  4.697105E-01
  4.686041E-01
  4.697164E-01
  4.675225E-01
  4.680851E-01
  4.661547E-01
  4.677568E-01
  4.672357E-01
  4.699682E-01
  4.696921E-01
  4.715259E-01
  4.694589E-01
  4.692952E-01
  4.658603E-01
  4.655840E-01
  4.634234E-01
  4.653614E-01
  4.673927E-01
  4.703278E-01
  4.692225E-01
  4.709060E-01
  4.680724E-01
  4.682585E-01
  4.648476E-01
  4.656779E-01
  4.638601E-01
  4.665149E-01
  4.659726E-01
  4.689211E-01
  4.678057E-01
  4.698640E-01
  4.681753E-01
  4.703179E-01
  4.692326E-01
  4.719855E-01
  4.709582E-01
  4.729540E-01
  4.705422E-01
  4.710472E-01
  4.675969E-01
  4.678355E-01
  4.648716E-01
  4.660908E-01
  4.642886E-01
  4.666092E-01
  4.656877E-01
  4.685353E-01
  4.676668E-01
  4.700540E-01
  4.683446E-01
  4.698233E-01
  4.675007E-01
  4.688687E-01
  4.668573E-01
  4.686436E-01
  4.668253E-01
  4.684624E-01
  4.663283E-01
  4.678138E-01
  4.659299E-01
  4.680355E-01
  4.668549E-01
  4.693857E-01
  4.681244E-01
  4.700789E-01
  4.679643E-01
  4.691104E-01
  4.665449E-01
  4.678021E-01
  4.659206E-01
  4.682058E-01
  4.672779E-01
  4.700069E-01
  4.687818E-01
  4.705783E-01
  4.681789E-01
  4.690402E-01
  4.662965E-01
  4.675145E-01
  4.657028E-01
  4.681289E-01
  4.642873E-01
  4.675554E-01
  4.669555E-01
  4.694865E-01
  4.675054E-01
  4.686729E-01
  4.659624E-01
  4.672945E-01
  4.654379E-01
  4.677955E-01
  4.666174E-01
  4.690734E-01
  4.675621E-01
  4.696479E-01
  4.680982E-01
  4.705797E-01
  4.696258E-01
  4.724657E-01
  4.712418E-01
  4.730629E-01
  4.702998E-01
  4.705415E-01
  4.666810E-01
  4.666555E-01
  4.634066E-01
  4.646281E-01
  4.628475E-01
  4.653452E-01
  4.643834E-01
  4.671931E-01
  4.661716E-01
  4.687663E-01
  4.675508E-01
  4.700241E-01
  4.686770E-01
  4.708585E-01
  4.689529E-01
  4.703414E-01
  4.676054E-01
  4.684203E-01
  4.656239E-01
  4.669762E-01
  4.651663E-01
  4.676230E-01
  4.666607E-01
  4.694436E-01
  4.682216E-01
  4.702853E-01
  4.681233E-01
  4.692913E-01
  4.665133E-01
  4.675185E-01
  4.651051E-01
  4.669254E-01
  4.655252E-01
  4.681808E-01
  4.670750E-01
  4.693013E-01
  4.671477E-01
  4.680879E-01
  4.649298E-01
  4.656007E-01
  4.630978E-01
  4.651660E-01
  4.665705E-01
  4.686783E-01
  4.676055E-01
  4.693410E-01
  4.674695E-01
  4.683209E-01
  4.659497E-01
  4.670032E-01
  4.654825E-01
  4.676157E-01
  4.668615E-01
  4.691124E-01
  4.679042E-01
  4.695645E-01
  4.681356E-01
  4.701829E-01
  4.695404E-01
  4.722243E-01
  4.715085E-01
  4.731919E-01
  4.708292E-01
  4.708583E-01
  4.674899E-01
  4.675060E-01
  4.650244E-01
  4.664190E-01
  4.653358E-01
  4.678196E-01
  4.673828E-01
  4.700600E-01
  4.693922E-01
  4.714708E-01
  4.699743E-01
  4.712341E-01
  4.691911E-01
  4.703144E-01
  4.684601E-01
  4.698417E-01
  4.680738E-01
  4.693244E-01
  4.673901E-01
  4.686975E-01
  4.671617E-01
  4.690746E-01
  4.680415E-01
  4.700722E-01
  4.686908E-01
  4.700559E-01
  4.679663E-01
  4.688415E-01
  4.666377E-01
  4.678034E-01
  4.661994E-01
  4.680696E-01
  4.670128E-01
  4.690587E-01
  4.677516E-01
  4.692619E-01
  4.673861E-01
  4.685117E-01
  4.665200E-01
  4.677674E-01
  4.660745E-01
  4.677563E-01
  4.635927E-01
  4.657280E-01
  4.656885E-01
  4.680400E-01
  4.675741E-01
  4.691573E-01
  4.679775E-01
  4.691789E-01
  4.679774E-01
  4.693239E-01
  4.681853E-01
  4.693990E-01
  4.680429E-01
  4.692140E-01
  4.682032E-01
  4.700878E-01
  4.698569E-01
  4.721351E-01
  4.715483E-01
  4.726629E-01
  4.704192E-01
  4.699520E-01
  4.667806E-01
  4.663766E-01
  4.642126E-01
  4.653621E-01
  4.647362E-01
  4.669330E-01
  4.666651E-01
  4.686533E-01
  4.679406E-01
  4.695859E-01
  4.688003E-01
  4.705721E-01
  4.698667E-01
  4.714073E-01
  4.700401E-01
  4.706059E-01
  4.682729E-01
  4.682644E-01
  4.660057E-01
  4.667207E-01
  4.655744E-01
  4.673924E-01
  4.669858E-01
  4.690104E-01
  4.683207E-01
  4.697548E-01
  4.683769E-01
  4.691909E-01
  4.673758E-01
  4.680222E-01
  4.663677E-01
  4.674913E-01
  4.665028E-01
  4.682436E-01
  4.675542E-01
  4.690940E-01
  4.677032E-01
  4.682439E-01
  4.659018E-01
  4.659068E-01
  4.636965E-01
  4.645252E-01
  4.658966E-01
  4.669750E-01
  4.665937E-01
  4.681432E-01
  4.677759E-01
  4.689230E-01
  4.680192E-01
  4.688299E-01
  4.679458E-01
  4.690104E-01
  4.683223E-01
  4.693000E-01
  4.682776E-01
  4.689709E-01
  4.680666E-01
  4.694095E-01
  4.694358E-01
  4.714555E-01
  4.713914E-01
  4.723919E-01
  4.707123E-01
  4.701793E-01
  4.677179E-01
  4.674687E-01
  4.661786E-01
  4.674560E-01
  4.674643E-01
  4.694493E-01
  4.695264E-01
  4.711162E-01
  4.705661E-01
  4.714765E-01
  4.703124E-01
  4.707663E-01
  4.693745E-01
  4.698339E-01
  4.685828E-01
  4.691581E-01
  4.678883E-01
  4.683463E-01
  4.670293E-01
  4.676826E-01
  4.668318E-01
  4.680622E-01
  4.676467E-01
  4.689860E-01
  4.683393E-01
  4.692468E-01
  4.681614E-01
  4.687792E-01
  4.676375E-01
  4.684492E-01
  4.676979E-01
  4.689617E-01
  4.685330E-01
  4.698276E-01
  4.691055E-01
  4.699072E-01
  4.686911E-01
  4.691363E-01
  4.677119E-01
  4.680353E-01
  4.665602E-01
  4.669914E-01
  4.630685E-01
  4.645134E-01
  4.649493E-01
  4.671801E-01
  4.677485E-01
  4.695458E-01
  4.693622E-01
  4.703650E-01
  4.695249E-01
  4.700491E-01
  4.688622E-01
  4.691457E-01
  4.678905E-01
  4.684081E-01
  4.677648E-01
  4.691689E-01
  4.693771E-01
  4.711927E-01
  4.710704E-01
  4.717941E-01
  4.701387E-01
  4.694404E-01
  4.670305E-01
  4.665548E-01
  4.652556E-01
  4.663194E-01
  4.663661E-01
  4.680912E-01
  4.679839E-01
  4.690085E-01
  4.681501E-01
  4.688116E-01
  4.681243E-01
  4.692856E-01
  4.690089E-01
  4.701120E-01
  4.691860E-01
  4.692555E-01
  4.673415E-01
  4.669008E-01
  4.651753E-01
  4.655379E-01
  4.649083E-01
  4.662738E-01
  4.662815E-01
  4.678420E-01
  4.676862E-01
  4.688680E-01
  4.682387E-01
  4.689351E-01
  4.678907E-01
  4.683520E-01
  4.673599E-01
  4.681899E-01
  4.677706E-01
  4.691340E-01
  4.689274E-01
  4.699935E-01
  4.689789E-01
  4.689294E-01
  4.668326E-01
  4.660975E-01
  4.639726E-01
  4.639332E-01
  4.658162E-01
  4.665510E-01
  4.662878E-01
  4.676852E-01
  4.676999E-01
  4.689026E-01
  4.684056E-01
  4.690695E-01
  4.682360E-01
  4.687984E-01
  4.679580E-01
  4.684533E-01
  4.674803E-01
  4.679571E-01
  4.673084E-01
  4.685177E-01
  4.687812E-01
  4.706264E-01
  4.708136E-01
  4.717345E-01
  4.704450E-01
  4.699480E-01
  4.679191E-01
  4.676672E-01
  4.667121E-01
  4.678503E-01
  4.680155E-01
  4.696310E-01
  4.695987E-01
  4.705790E-01
  4.697931E-01
  4.701395E-01
  4.689412E-01
  4.690997E-01
  4.678998E-01
  4.681861E-01
  4.671640E-01
  4.675916E-01
  4.666288E-01
  4.670708E-01
  4.661811E-01
  4.668448E-01
  4.663168E-01
  4.673613E-01
  4.670732E-01
  4.681205E-01
  4.676182E-01
  4.683442E-01
  4.675457E-01
  4.681063E-01
  4.673406E-01
  4.681558E-01
  4.678206E-01
  4.691002E-01
  4.690544E-01
  4.702742E-01
  4.697942E-01
  4.703602E-01
  4.692479E-01
  4.693780E-01
  4.680466E-01
  4.680864E-01
  4.667286E-01
  4.668543E-01
  4.637280E-01
  4.650116E-01
  4.652867E-01
  4.671487E-01
  4.675503E-01
  4.691097E-01
  4.688971E-01
  4.697011E-01
  4.687593E-01
  4.689811E-01
  4.676724E-01
  4.677840E-01
  4.666611E-01
  4.672780E-01
  4.669356E-01
  4.684479E-01
  4.688455E-01
  4.706430E-01
  4.706680E-01
  4.714398E-01
  4.700389E-01
  4.694276E-01
  4.671689E-01
  4.665474E-01
  4.651252E-01
  4.658304E-01
  4.656596E-01
  4.670407E-01
  4.667921E-01
  4.675703E-01
  4.666775E-01
  4.672105E-01
  4.666070E-01
  4.677286E-01
  4.675699E-01
  4.686238E-01
  4.678145E-01
  4.679017E-01
  4.662583E-01
  4.660273E-01
  4.647081E-01
  4.652751E-01
  4.648820E-01
  4.661683E-01
  4.661084E-01
  4.673527E-01
  4.670080E-01
  4.678758E-01
  4.671673E-01
  4.677413E-01
  4.668554E-01
  4.674250E-01
  4.667515E-01
  4.677271E-01
  4.675273E-01
  4.688381E-01
  4.686301E-01
  4.694871E-01
  4.684466E-01
  4.683202E-01
  4.664530E-01
  4.659281E-01
  4.642270E-01
  4.643948E-01
  4.673572E-01
  4.678854E-01
  4.673763E-01
  4.680288E-01
  4.675966E-01
  4.681634E-01
  4.674883E-01
  4.677753E-01
  4.669221E-01
  4.671888E-01
  4.664262E-01
  4.668166E-01
  4.661984E-01
  4.668374E-01
  4.666802E-01
  4.679971E-01
  4.685530E-01
  4.702915E-01
  4.706661E-01
  4.715169E-01
  4.705077E-01
  4.699448E-01
  4.680095E-01
  4.673320E-01
  4.660718E-01
  4.665189E-01
  4.663606E-01
  4.675155E-01
  4.675457E-01
  4.684784E-01
  4.680882E-01
  4.685809E-01
  4.678164E-01
  4.680220E-01
  4.670719E-01
  4.672194E-01
  4.663507E-01
  4.666900E-01
  4.660647E-01
  4.666504E-01
  4.662592E-01
  4.670636E-01
  4.668432E-01
  4.676959E-01
  4.673281E-01
  4.678343E-01
  4.670194E-01
  4.671447E-01
  4.661738E-01
  4.664529E-01
  4.659301E-01
  4.668414E-01
  4.669518E-01
  4.682785E-01
  4.684038E-01
  4.692934E-01
  4.686710E-01
  4.688006E-01
  4.677180E-01
  4.678409E-01
  4.671157E-01
  4.676973E-01
  4.672726E-01
  4.678986E-01
  4.660517E-01
  4.668916E-01
  4.670182E-01
  4.677090E-01
  4.676661E-01
  4.681795E-01
  4.679011E-01
  4.680762E-01
  4.673800E-01
  4.671629E-01
  4.662491E-01
  4.661177E-01
  4.656425E-01
  4.662428E-01
  4.666292E-01
  4.679991E-01
  4.688485E-01
  4.702253E-01
  4.705714E-01
  4.709833E-01
  4.700582E-01
  4.691570E-01
  4.672196E-01
  4.659274E-01
  4.643671E-01
  4.640793E-01
  4.637494E-01
  4.644502E-01
  4.645873E-01
  4.652861E-01
  4.652640E-01
  4.659727E-01
  4.662292E-01
  4.672897E-01
  4.676304E-01
  4.682757E-01
  4.677581E-01
  4.674351E-01
  4.662627E-01
  4.658773E-01
  4.652273E-01
  4.656761E-01
  4.657887E-01
  4.666239E-01
  4.666455E-01
  4.670262E-01
  4.664747E-01
  4.664153E-01
  4.657135E-01
  4.658156E-01
  4.654944E-01
  4.660481E-01
  4.661085E-01
  4.668777E-01
  4.669444E-01
  4.675096E-01
  4.671942E-01
  4.672703E-01
  4.664773E-01
  4.662388E-01
  4.654247E-01
  4.654961E-01
  4.652278E-01
  4.658867E-01
  4.701241E-01
  4.698736E-01
  4.694169E-01
  4.685552E-01
  4.678823E-01
  4.670839E-01
  4.665978E-01
  4.660079E-01
  4.657278E-01
  4.653589E-01
  4.653320E-01
  4.652531E-01
  4.655582E-01
  4.658664E-01
  4.666169E-01
  4.673873E-01
  4.685081E-01
  4.693988E-01
  4.702436E-01
  4.704091E-01
  4.701798E-01
  4.691768E-01
  4.680177E-01
  4.666049E-01
  4.656629E-01
  4.649812E-01
  4.650146E-01
  4.652607E-01
  4.659796E-01
  4.666060E-01
  4.674178E-01
  4.678785E-01
  4.682879E-01
  4.681654E-01
  4.679426E-01
  4.673261E-01
  4.669071E-01
  4.664404E-01
  4.664355E-01
  4.664921E-01
  4.669658E-01
  4.673384E-01
  4.678773E-01
  4.680014E-01
  4.679749E-01
  4.673279E-01
  4.665622E-01
  4.655003E-01
  4.648603E-01
  4.644905E-01
  4.649136E-01
  4.656295E-01
  4.667880E-01
  4.676265E-01
  4.682418E-01
  4.680640E-01
  4.675810E-01
  4.666758E-01
  4.661630E-01
  4.659665E-01
  4.666160E-01
  4.675441E-01
  4.688107E-01
  4.696181E-01
  4.687560E-01
  4.685062E-01
  4.689104E-01
  4.679405E-01
  4.679571E-01
  4.669586E-01
  4.671353E-01
  4.662602E-01
  4.664023E-01
  4.653908E-01
  4.654803E-01
  4.646848E-01
  4.653171E-01
  4.652732E-01
  4.666266E-01
  4.670382E-01
  4.684654E-01
  4.686025E-01
  4.695215E-01
  4.690106E-01
  4.691739E-01
  4.678275E-01
  4.671938E-01
  4.653186E-01
  4.646576E-01
  4.633244E-01
  4.635939E-01
  4.632400E-01
  4.642486E-01
  4.643219E-01
  4.655811E-01
  4.658973E-01
  4.674052E-01
  4.677932E-01
  4.689598E-01
  4.685167E-01
  4.685644E-01
  4.671253E-01
  4.667051E-01
  4.655066E-01
  4.658943E-01
  4.656810E-01
  4.667820E-01
  4.667047E-01
  4.673289E-01
  4.663975E-01
  4.661836E-01
  4.648078E-01
  4.647438E-01
  4.640549E-01
  4.649351E-01
  4.650799E-01
  4.663935E-01
  4.664734E-01
  4.673257E-01
  4.667637E-01
  4.670124E-01
  4.660401E-01
  4.661589E-01
  4.653776E-01
  4.659961E-01
  4.659180E-01
  4.672236E-01
  4.675414E-01
  4.722275E-01
  4.707369E-01
  4.707441E-01
  4.683515E-01
  4.680318E-01
  4.658084E-01
  4.659508E-01
  4.642799E-01
  4.649436E-01
  4.637316E-01
  4.648106E-01
  4.639900E-01
  4.654289E-01
  4.649031E-01
  4.665351E-01
  4.660854E-01
  4.676898E-01
  4.671342E-01
  4.685631E-01
  4.677401E-01
  4.687804E-01
  4.674612E-01
  4.679903E-01
  4.662978E-01
  4.667326E-01
  4.652777E-01
  4.662221E-01
  4.654171E-01
  4.670118E-01
  4.667397E-01
  4.686416E-01
  4.683421E-01
  4.698119E-01
  4.687217E-01
  4.692487E-01
  4.673759E-01
  4.675586E-01
  4.658880E-01
  4.667173E-01
  4.658945E-01
  4.675010E-01
  4.671621E-01
  4.688097E-01
  4.680064E-01
  4.687464E-01
  4.668215E-01
  4.665993E-01
  4.642652E-01
  4.644192E-01
  4.631856E-01
  4.648128E-01
  4.649248E-01
  4.673256E-01
  4.674171E-01
  4.690710E-01
  4.680084E-01
  4.685539E-01
  4.668586E-01
  4.674998E-01
  4.666013E-01
  4.684285E-01
  4.686195E-01
  4.709752E-01
  4.708866E-01
  4.698517E-01
  4.685003E-01
  4.694445E-01
  4.673898E-01
  4.679371E-01
  4.658820E-01
  4.666908E-01
  4.649239E-01
  4.658879E-01
  4.641594E-01
  4.652029E-01
  4.637576E-01
  4.653154E-01
  4.644631E-01
  4.664448E-01
  4.656651E-01
  4.673765E-01
  4.661762E-01
  4.675534E-01
  4.662140E-01
  4.675622E-01
  4.661218E-01
  4.671972E-01
  4.654021E-01
  4.662599E-01
  4.645556E-01
  4.657981E-01
  4.645942E-01
  4.662643E-01
  4.653587E-01
  4.672742E-01
  4.666352E-01
  4.687736E-01
  4.681070E-01
  4.697703E-01
  4.681825E-01
  4.687520E-01
  4.663361E-01
  4.667180E-01
  4.648602E-01
  4.663139E-01
  4.655746E-01
  4.677045E-01
  4.669060E-01
  4.682718E-01
  4.663417E-01
  4.667023E-01
  4.643256E-01
  4.649803E-01
  4.635001E-01
  4.652787E-01
  4.647302E-01
  4.669807E-01
  4.664228E-01
  4.683540E-01
  4.673831E-01
  4.689383E-01
  4.676475E-01
  4.689234E-01
  4.674350E-01
  4.686962E-01
  4.674417E-01
  4.691049E-01
  4.681842E-01
  4.721778E-01
  4.700761E-01
  4.705025E-01
  4.677624E-01
  4.679290E-01
  4.653110E-01
  4.658748E-01
  4.637855E-01
  4.648965E-01
  4.633171E-01
  4.648846E-01
  4.636956E-01
  4.655522E-01
  4.645005E-01
  4.663139E-01
  4.650713E-01
  4.666479E-01
  4.652502E-01
  4.668354E-01
  4.655934E-01
  4.673762E-01
  4.662515E-01
  4.680116E-01
  4.667577E-01
  4.683718E-01
  4.670356E-01
  4.686646E-01
  4.674350E-01
  4.692396E-01
  4.682081E-01
  4.701357E-01
  4.690069E-01
  4.704970E-01
  4.686066E-01
  4.692196E-01
  4.666705E-01
  4.671364E-01
  4.650496E-01
  4.664469E-01
  4.654636E-01
  4.678124E-01
  4.673696E-01
  4.696906E-01
  4.686169E-01
  4.698270E-01
  4.674628E-01
  4.676237E-01
  4.648406E-01
  4.653902E-01
  4.636767E-01
  4.656043E-01
  4.651335E-01
  4.678393E-01
  4.675646E-01
  4.699655E-01
  4.690847E-01
  4.708110E-01
  4.693929E-01
  4.708581E-01
  4.694944E-01
  4.712479E-01
  4.702182E-01
  4.721204E-01
  4.708792E-01
  4.688296E-01
  4.676347E-01
  4.686283E-01
  4.671286E-01
  4.678519E-01
  4.662842E-01
  4.671146E-01
  4.656716E-01
  4.665120E-01
  4.649754E-01
  4.657663E-01
  4.643866E-01
  4.655764E-01
  4.646937E-01
  4.662364E-01
  4.653861E-01
  4.666595E-01
  4.654461E-01
  4.665144E-01
  4.653712E-01
  4.666939E-01
  4.657803E-01
  4.671561E-01
  4.661355E-01
  4.673863E-01
  4.663423E-01
  4.676577E-01
  4.666501E-01
  4.678899E-01
  4.667466E-01
  4.679424E-01
  4.669476E-01
  4.684062E-01
  4.675490E-01
  4.687852E-01
  4.673077E-01
  4.677581E-01
  4.657262E-01
  4.661961E-01
  4.648461E-01
  4.664264E-01
  4.661598E-01
  4.683313E-01
  4.679074E-01
  4.692467E-01
  4.676802E-01
  4.680442E-01
  4.660354E-01
  4.665848E-01