# vtk DataFile Version 2.0
title
ASCII
DATASET STRUCTURED_GRID
DIMENSIONS   64   64    1
POINTS   4096  float
  0.000000E+00  0.000000E+00  0.000000E+00
  0.000000E+00  3.906250E-01  0.000000E+00
  0.000000E+00  7.812500E-01  0.000000E+00
  0.000000E+00  1.171875E+00  0.000000E+00
  0.000000E+00  1.562500E+00  0.000000E+00
  0.000000E+00  1.953125E+00  0.000000E+00
  0.000000E+00  2.343750E+00  0.000000E+00
  0.000000E+00  2.734375E+00  0.000000E+00
  0.000000E+00  3.125000E+00  0.000000E+00
  0.000000E+00  3.515625E+00  0.000000E+00
  0.000000E+00  3.906250E+00  0.000000E+00
  0.000000E+00  4.296875E+00  0.000000E+00
  0.000000E+00  4.687500E+00  0.000000E+00
  0.000000E+00  5.078125E+00  0.000000E+00
  0.000000E+00  5.468750E+00  0.000000E+00
  0.000000E+00  5.859375E+00  0.000000E+00
  0.000000E+00  6.250000E+00  0.000000E+00
  0.000000E+00  6.640625E+00  0.000000E+00
  0.000000E+00  7.031250E+00  0.000000E+00
  0.000000E+00  7.421875E+00  0.000000E+00
  0.000000E+00  7.812500E+00  0.000000E+00
  0.000000E+00  8.203125E+00  0.000000E+00
  0.000000E+00  8.593750E+00  0.000000E+00
  0.000000E+00  8.984375E+00  0.000000E+00
  0.000000E+00  9.375000E+00  0.000000E+00
  0.000000E+00  9.765625E+00  0.000000E+00
  0.000000E+00  1.015625E+01  0.000000E+00
  0.000000E+00  1.054688E+01  0.000000E+00
  0.000000E+00  1.093750E+01  0.000000E+00
  0.000000E+00  1.132812E+01  0.000000E+00
  0.000000E+00  1.171875E+01  0.000000E+00
  0.000000E+00  1.210938E+01  0.000000E+00
  0.000000E+00  1.250000E+01  0.000000E+00
  0.000000E+00  1.289062E+01  0.000000E+00
  0.000000E+00  1.328125E+01  0.000000E+00
  0.000000E+00  1.367188E+01  0.000000E+00
  0.000000E+00  1.406250E+01  0.000000E+00
  0.000000E+00  1.445312E+01  0.000000E+00
  0.000000E+00  1.484375E+01  0.000000E+00
  0.000000E+00  1.523438E+01  0.000000E+00
  0.000000E+00  1.562500E+01  0.000000E+00
  0.000000E+00  1.601562E+01  0.000000E+00
  0.000000E+00  1.640625E+01  0.000000E+00
  0.000000E+00  1.679688E+01  0.000000E+00
  0.000000E+00  1.718750E+01  0.000000E+00
  0.000000E+00  1.757812E+01  0.000000E+00
  0.000000E+00  1.796875E+01  0.000000E+00
  0.000000E+00  1.835938E+01  0.000000E+00
  0.000000E+00  1.875000E+01  0.000000E+00
  0.000000E+00  1.914062E+01  0.000000E+00
  0.000000E+00  1.953125E+01  0.000000E+00
  0.000000E+00  1.992188E+01  0.000000E+00
  0.000000E+00  2.031250E+01  0.000000E+00
  0.000000E+00  2.070312E+01  0.000000E+00
  0.000000E+00  2.109375E+01  0.000000E+00
  0.000000E+00  2.148438E+01  0.000000E+00
  0.000000E+00  2.187500E+01  0.000000E+00
  0.000000E+00  2.226562E+01  0.000000E+00
  0.000000E+00  2.265625E+01  0.000000E+00
  0.000000E+00  2.304688E+01  0.000000E+00
  0.000000E+00  2.343750E+01  0.000000E+00
  0.000000E+00  2.382812E+01  0.000000E+00
  0.000000E+00  2.421875E+01  0.000000E+00
  0.000000E+00  2.460938E+01  0.000000E+00
  3.906250E-01  0.000000E+00  0.000000E+00
  3.906250E-01  3.906250E-01  0.000000E+00
  3.906250E-01  7.812500E-01  0.000000E+00
  3.906250E-01  1.171875E+00  0.000000E+00
  3.906250E-01  1.562500E+00  0.000000E+00
  3.906250E-01  1.953125E+00  0.000000E+00
  3.906250E-01  2.343750E+00  0.000000E+00
  3.906250E-01  2.734375E+00  0.000000E+00
  3.906250E-01  3.125000E+00  0.000000E+00
  3.906250E-01  3.515625E+00  0.000000E+00
  3.906250E-01  3.906250E+00  0.000000E+00
  3.906250E-01  4.296875E+00  0.000000E+00
  3.906250E-01  4.687500E+00  0.000000E+00
  3.906250E-01  5.078125E+00  0.000000E+00
  3.906250E-01  5.468750E+00  0.000000E+00
  3.906250E-01  5.859375E+00  0.000000E+00
  3.906250E-01  6.250000E+00  0.000000E+00
  3.906250E-01  6.640625E+00  0.000000E+00
  3.906250E-01  7.031250E+00  0.000000E+00
  3.906250E-01  7.421875E+00  0.000000E+00
  3.906250E-01  7.812500E+00  0.000000E+00
  3.906250E-01  8.203125E+00  0.000000E+00
  3.906250E-01  8.593750E+00  0.000000E+00
  3.906250E-01  8.984375E+00  0.000000E+00
  3.906250E-01  9.375000E+00  0.000000E+00
  3.906250E-01  9.765625E+00  0.000000E+00
  3.906250E-01  1.015625E+01  0.000000E+00
  3.906250E-01  1.054688E+01  0.000000E+00
  3.906250E-01  1.093750E+01  0.000000E+00
  3.906250E-01  1.132812E+01  0.000000E+00
  3.906250E-01  1.171875E+01  0.000000E+00
  3.906250E-01  1.210938E+01  0.000000E+00
  3.906250E-01  1.250000E+01  0.000000E+00
  3.906250E-01  1.289062E+01  0.000000E+00
  3.906250E-01  1.328125E+01  0.000000E+00
  3.906250E-01  1.367188E+01  0.000000E+00
  3.906250E-01  1.406250E+01  0.000000E+00
  3.906250E-01  1.445312E+01  0.000000E+00
  3.906250E-01  1.484375E+01  0.000000E+00
  3.906250E-01  1.523438E+01  0.000000E+00
  3.906250E-01  1.562500E+01  0.000000E+00
  3.906250E-01  1.601562E+01  0.000000E+00
  3.906250E-01  1.640625E+01  0.000000E+00
  3.906250E-01  1.679688E+01  0.000000E+00
  3.906250E-01  1.718750E+01  0.000000E+00
  3.906250E-01  1.757812E+01  0.000000E+00
  3.906250E-01  1.796875E+01  0.000000E+00
  3.906250E-01  1.835938E+01  0.000000E+00
  3.906250E-01  1.875000E+01  0.000000E+00
  3.906250E-01  1.914062E+01  0.000000E+00
  3.906250E-01  1.953125E+01  0.000000E+00
  3.906250E-01  1.992188E+01  0.000000E+00
  3.906250E-01  2.031250E+01  0.000000E+00
  3.906250E-01  2.070312E+01  0.000000E+00
  3.906250E-01  2.109375E+01  0.000000E+00
  3.906250E-01  2.148438E+01  0.000000E+00
  3.906250E-01  2.187500E+01  0.000000E+00
  3.906250E-01  2.226562E+01  0.000000E+00
  3.906250E-01  2.265625E+01  0.000000E+00
  3.906250E-01  2.304688E+01  0.000000E+00
  3.906250E-01  2.343750E+01  0.000000E+00
  3.906250E-01  2.382812E+01  0.000000E+00
  3.906250E-01  2.421875E+01  0.000000E+00
  3.906250E-01  2.460938E+01  0.000000E+00
  7.812500E-01  0.000000E+00  0.000000E+00
  7.812500E-01  3.906250E-01  0.000000E+00
  7.812500E-01  7.812500E-01  0.000000E+00
  7.812500E-01  1.171875E+00  0.000000E+00
  7.812500E-01  1.562500E+00  0.000000E+00
  7.812500E-01  1.953125E+00  0.000000E+00
  7.812500E-01  2.343750E+00  0.000000E+00
  7.812500E-01  2.734375E+00  0.000000E+00
  7.812500E-01  3.125000E+00  0.000000E+00
  7.812500E-01  3.515625E+00  0.000000E+00
  7.812500E-01  3.906250E+00  0.000000E+00
  7.812500E-01  4.296875E+00  0.000000E+00
  7.812500E-01  4.687500E+00  0.000000E+00
  7.812500E-01  5.078125E+00  0.000000E+00
  7.812500E-01  5.468750E+00  0.000000E+00
  7.812500E-01  5.859375E+00  0.000000E+00
  7.812500E-01  6.250000E+00  0.000000E+00
  7.812500E-01  6.640625E+00  0.000000E+00
  7.812500E-01  7.031250E+00  0.000000E+00
  7.812500E-01  7.421875E+00  0.000000E+00
  7.812500E-01  7.812500E+00  0.000000E+00
  7.812500E-01  8.203125E+00  0.000000E+00
  7.812500E-01  8.593750E+00  0.000000E+00
  7.812500E-01  8.984375E+00  0.000000E+00
  7.812500E-01  9.375000E+00  0.000000E+00
  7.812500E-01  9.765625E+00  0.000000E+00
  7.812500E-01  1.015625E+01  0.000000E+00
  7.812500E-01  1.054688E+01  0.000000E+00
  7.812500E-01  1.093750E+01  0.000000E+00
  7.812500E-01  1.132812E+01  0.000000E+00
  7.812500E-01  1.171875E+01  0.000000E+00
  7.812500E-01  1.210938E+01  0.000000E+00
  7.812500E-01  1.250000E+01  0.000000E+00
  7.812500E-01  1.289062E+01  0.000000E+00
  7.812500E-01  1.328125E+01  0.000000E+00
  7.812500E-01  1.367188E+01  0.000000E+00
  7.812500E-01  1.406250E+01  0.000000E+00
  7.812500E-01  1.445312E+01  0.000000E+00
  7.812500E-01  1.484375E+01  0.000000E+00
  7.812500E-01  1.523438E+01  0.000000E+00
  7.812500E-01  1.562500E+01  0.000000E+00
  7.812500E-01  1.601562E+01  0.000000E+00
  7.812500E-01  1.640625E+01  0.000000E+00
  7.812500E-01  1.679688E+01  0.000000E+00
  7.812500E-01  1.718750E+01  0.000000E+00
  7.812500E-01  1.757812E+01  0.000000E+00
  7.812500E-01  1.796875E+01  0.000000E+00
  7.812500E-01  1.835938E+01  0.000000E+00
  7.812500E-01  1.875000E+01  0.000000E+00
  7.812500E-01  1.914062E+01  0.000000E+00
  7.812500E-01  1.953125E+01  0.000000E+00
  7.812500E-01  1.992188E+01  0.000000E+00
  7.812500E-01  2.031250E+01  0.000000E+00
  7.812500E-01  2.070312E+01  0.000000E+00
  7.812500E-01  2.109375E+01  0.000000E+00
  7.812500E-01  2.148438E+01  0.000000E+00
  7.812500E-01  2.187500E+01  0.000000E+00
  7.812500E-01  2.226562E+01  0.000000E+00
  7.812500E-01  2.265625E+01  0.000000E+00
  7.812500E-01  2.304688E+01  0.000000E+00
  7.812500E-01  2.343750E+01  0.000000E+00
  7.812500E-01  2.382812E+01  0.000000E+00
  7.812500E-01  2.421875E+01  0.000000E+00
  7.812500E-01  2.460938E+01  0.000000E+00
  1.171875E+00  0.000000E+00  0.000000E+00
  1.171875E+00  3.906250E-01  0.000000E+00
  1.171875E+00  7.812500E-01  0.000000E+00
  1.171875E+00  1.171875E+00  0.000000E+00
  1.171875E+00  1.562500E+00  0.000000E+00
  1.171875E+00  1.953125E+00  0.000000E+00
  1.171875E+00  2.343750E+00  0.000000E+00
  1.171875E+00  2.734375E+00  0.000000E+00
  1.171875E+00  3.125000E+00  0.000000E+00
  1.171875E+00  3.515625E+00  0.000000E+00
  1.171875E+00  3.906250E+00  0.000000E+00
  1.171875E+00  4.296875E+00  0.000000E+00
  1.171875E+00  4.687500E+00  0.000000E+00
  1.171875E+00  5.078125E+00  0.000000E+00
  1.171875E+00  5.468750E+00  0.000000E+00
  1.171875E+00  5.859375E+00  0.000000E+00
  1.171875E+00  6.250000E+00  0.000000E+00
  1.171875E+00  6.640625E+00  0.000000E+00
  1.171875E+00  7.031250E+00  0.000000E+00
  1.171875E+00  7.421875E+00  0.000000E+00
  1.171875E+00  7.812500E+00  0.000000E+00
  1.171875E+00  8.203125E+00  0.000000E+00
  1.171875E+00  8.593750E+00  0.000000E+00
  1.171875E+00  8.984375E+00  0.000000E+00
  1.171875E+00  9.375000E+00  0.000000E+00
  1.171875E+00  9.765625E+00  0.000000E+00
  1.171875E+00  1.015625E+01  0.000000E+00
  1.171875E+00  1.054688E+01  0.000000E+00
  1.171875E+00  1.093750E+01  0.000000E+00
  1.171875E+00  1.132812E+01  0.000000E+00
  1.171875E+00  1.171875E+01  0.000000E+00
  1.171875E+00  1.210938E+01  0.000000E+00
  1.171875E+00  1.250000E+01  0.000000E+00
  1.171875E+00  1.289062E+01  0.000000E+00
  1.171875E+00  1.328125E+01  0.000000E+00
  1.171875E+00  1.367188E+01  0.000000E+00
  1.171875E+00  1.406250E+01  0.000000E+00
  1.171875E+00  1.445312E+01  0.000000E+00
[...]
POINT_DATA   4096
SCALARS CON  float  1
LOOKUP_TABLE default
  4.695003E-01
  4.687385E-01
  4.715463E-01
  4.699941E-01
  4.716841E-01
  4.692162E-01
  4.705250E-01
  4.682120E-01
  4.699454E-01
  4.679976E-01
  4.698539E-01
  4.678378E-01
  4.696458E-01
  4.678006E-01
  4.700363E-01
  4.687159E-01
  4.713065E-01
  4.699452E-01
  4.720285E-01
  4.698033E-01
  4.708996E-01
  4.678290E-01
  4.684368E-01
  4.653518E-01
  4.664148E-01
  4.641248E-01
  4.660929E-01
  4.645560E-01
  4.669313E-01
  4.654189E-01
  4.675746E-01
  4.658331E-01
  4.679400E-01
  4.663591E-01
  4.686883E-01
  4.671633E-01
  4.692212E-01
  4.671052E-01
  4.684268E-01
  4.656788E-01
  4.666826E-01
  4.640333E-01
  4.655450E-01
  4.637295E-01
  4.662633E-01
  4.654633E-01
  4.687536E-01
  4.681907E-01
  4.710434E-01
  4.694426E-01
  4.710070E-01
  4.683910E-01
  4.696767E-01
  4.676684E-01
  4.701640E-01
  4.693529E-01
  4.723818E-01
  4.710887E-01
  4.727612E-01
  4.698139E-01
  4.702695E-01
  4.670819E-01
  4.683659E-01
  4.666894E-01
  4.714064E-01
  4.710666E-01
  4.726967E-01
  4.712409E-01
  4.715447E-01
  4.691008E-01
  4.691395E-01
  4.672031E-01
  4.682312E-01
  4.673011E-01
  4.689584E-01
  4.681472E-01
  4.695708E-01
  4.684879E-01
  4.698659E-01
  4.690198E-01
  4.707447E-01
  4.700714E-01
  4.715730E-01
  4.702495E-01
  4.708522E-01
  4.686774E-01
  4.687542E-01
  4.665318E-01
  4.670320E-01
  4.655675E-01
  4.669548E-01
  4.662883E-01
  4.681955E-01
  4.676496E-01
  4.692619E-01
  4.681136E-01
  4.690272E-01
  4.673252E-01
  4.680009E-01
  4.663997E-01
  4.673820E-01
  4.660754E-01
  4.671542E-01
  4.656929E-01
  4.664752E-01
  4.647935E-01
  4.656506E-01
  4.644485E-01
  4.661256E-01
  4.658533E-01
  4.682503E-01
  4.682057E-01
  4.702269E-01
  4.693446E-01
  4.704360E-01
  4.689798E-01
  4.701557E-01
  4.694182E-01
  4.715735E-01
  4.715244E-01
  4.736337E-01
  4.727106E-01
  4.734339E-01
  4.711854E-01
  4.711956E-01
  4.691245E-01
  4.700954E-01
  4.693368E-01
  4.678641E-01
  4.690877E-01
  4.705980E-01
  4.708386E-01
  4.708388E-01
  4.697353E-01
  4.690784E-01
  4.681349E-01
  4.681939E-01
  4.680676E-01
  4.686640E-01
  4.686709E-01
  4.691373E-01
  4.690137E-01
  4.695432E-01
  4.696807E-01
  4.704918E-01
  4.706862E-01
  4.711586E-01
  4.706137E-01
  4.701115E-01
  4.686240E-01
  4.674812E-01
  4.658386E-01
  4.650681E-01
  4.642146E-01
  4.644223E-01
  4.644678E-01
  4.652836E-01
  4.655695E-01
  4.663337E-01
  4.664458E-01
  4.670718E-01
  4.671332E-01
  4.677182E-01
  4.676029E-01
  4.677690E-01
  4.670080E-01
  4.664528E-01
  4.651219E-01
  4.643577E-01
  4.632952E-01
  4.632690E-01
  4.632902E-01
  4.644789E-01
  4.655751E-01
  4.674197E-01
  4.685411E-01
  4.697328E-01
  4.697118E-01
  4.696817E-01
  4.688581E-01
  4.688115E-01
  4.687871E-01
  4.699816E-01
  4.709992E-01
  4.724221E-01
  4.725790E-01
  4.722808E-01
  4.705130E-01
  4.688851E-01
  4.669595E-01
  4.664348E-01
  4.664299E-01
  4.693356E-01
  4.709851E-01
  4.710375E-01
  4.714296E-01
  4.698957E-01
  4.690150E-01
  4.670361E-01
  4.666907E-01
  4.659533E-01
  4.670019E-01
  4.672600E-01
  4.686222E-01
  4.686023E-01
  4.694568E-01
  4.690946E-01
  4.699702E-01
  4.698980E-01
  4.710284E-01
  4.708604E-01
  4.714085E-01
  4.702921E-01
  4.698342E-01
  4.679946E-01
  4.673196E-01
  4.658074E-01
  4.658808E-01
  4.653258E-01
  4.663354E-01
  4.664910E-01
  4.678349E-01
  4.678834E-01
  4.687321E-01
  4.680746E-01
  4.682558E-01
  4.671896E-01
  4.673084E-01
  4.664388E-01
  4.668079E-01
  4.660451E-01
  4.663098E-01
  4.653371E-01
  4.655023E-01
  4.647365E-01
  4.654708E-01
  4.655055E-01
  4.670024E-01
  4.674702E-01
  4.688874E-01
  4.687793E-01
  4.693577E-01
  4.685201E-01
  4.688338E-01
  4.683596E-01
  4.695258E-01
  4.699840E-01
  4.716626E-01
  4.718691E-01
  4.725274E-01
  4.713005E-01
  4.706723E-01
  4.688213E-01
  4.684828E-01
  4.677223E-01
  4.688454E-01
  4.657326E-01
  4.685727E-01
  4.685256E-01
  4.703865E-01
  4.687938E-01
  4.692336E-01
  4.669137E-01
  4.675187E-01
  4.660350E-01
  4.676695E-01
  4.669460E-01
  4.688508E-01
  4.679949E-01
  4.696476E-01
  4.686947E-01
  4.705001E-01
  4.698169E-01
  4.717378E-01
  4.707684E-01
  4.719208E-01
  4.698391E-01
  4.698385E-01
  4.669073E-01
  4.666141E-01
  4.640213E-01
  4.645768E-01
  4.630838E-01
  4.646925E-01
  4.639764E-01
  4.659939E-01
  4.653714E-01
  4.673069E-01
  4.665607E-01
  4.683827E-01
  4.674835E-01
  4.690102E-01
  4.676024E-01
  4.684406E-01
  4.663176E-01
  4.666364E-01
  4.643910E-01
  4.650787E-01
  4.636393E-01
  4.653808E-01
  4.649749E-01
  4.674576E-01
  4.672963E-01
  4.694492E-01
  4.684690E-01
  4.695638E-01
  4.676481E-01
  4.682891E-01
  4.666096E-01
  4.681126E-01
  4.675660E-01
  4.699461E-01
  4.695462E-01
  4.711518E-01
  4.692693E-01
  4.692413E-01
  4.662501E-01
  4.661386E-01
  4.641829E-01
  4.658532E-01
  4.674879E-01
  4.700814E-01
  4.689325E-01
  4.704863E-01
  4.679848E-01
  4.684110E-01
  4.654849E-01
  4.663780E-01
  4.646089E-01
  4.668527E-01
  4.660891E-01
  4.686830E-01
  4.676692E-01
  4.697621E-01
  4.684091E-01
  4.705477E-01
  4.695331E-01
  4.719656E-01
  4.708329E-01
  4.725642E-01
  4.702802E-01
  4.707806E-01
  4.676082E-01
  4.678448E-01
  4.650777E-01
  4.662223E-01
  4.645910E-01
  4.668207E-01
  4.660034E-01
  4.686351E-01
  4.677569E-01
  4.699209E-01
  4.683364E-01
  4.697961E-01
  4.677314E-01
  4.690383E-01
  4.670854E-01
  4.685875E-01
  4.667351E-01
  4.681838E-01
  4.662185E-01
  4.676716E-01
  4.659587E-01
  4.678965E-01
  4.667301E-01
  4.690358E-01
  4.678707E-01
  4.697708E-01
  4.679274E-01
  4.691376E-01
  4.668800E-01
  4.681485E-01
  4.664340E-01
  4.685311E-01
  4.675861E-01
  4.700465E-01
  4.688690E-01
  4.705632E-01
  4.683779E-01
  4.692190E-01
  4.666721E-01
  4.677917E-01
  4.660737E-01
  4.682766E-01
  4.643414E-01
  4.673481E-01
  4.666879E-01
  4.691630E-01
  4.674402E-01
  4.688222E-01
  4.664401E-01
  4.678093E-01
  4.659464E-01
  4.680250E-01
  4.667017E-01
  4.689681E-01
  4.675510E-01
  4.696820E-01
  4.683184E-01
  4.707492E-01
  4.697637E-01
  4.723436E-01
  4.710054E-01
  4.726550E-01
  4.699938E-01
  4.703100E-01
  4.667272E-01
  4.668236E-01
  4.637717E-01
  4.649528E-01
  4.631912E-01
  4.655135E-01
  4.645115E-01
  4.671634E-01
  4.661711E-01
  4.686899E-01
  4.675586E-01
  4.699595E-01
  4.686516E-01
  4.706996E-01
  4.688021E-01
  4.700889E-01
  4.674501E-01
  4.682612E-01
  4.656041E-01
  4.669001E-01
  4.651019E-01
  4.673724E-01
  4.663717E-01
  4.690363E-01
  4.679310E-01
  4.700419E-01
  4.681038E-01
  4.693465E-01
  4.667642E-01
  4.677963E-01
  4.655248E-01
  4.673032E-01
  4.659522E-01
  4.684617E-01
  4.673231E-01
  4.693770E-01
  4.672343E-01
  4.681019E-01
  4.650703E-01
  4.657436E-01
  4.633499E-01
  4.652955E-01
  4.665275E-01
  4.686348E-01
  4.674882E-01
  4.691857E-01
  4.673388E-01
  4.683423E-01
  4.661404E-01
  4.673201E-01
  4.657584E-01
  4.677409E-01
  4.667752E-01
  4.689235E-01
  4.677440E-01
  4.695806E-01
  4.683135E-01
  4.704274E-01
  4.696516E-01
  4.721021E-01
  4.711401E-01
  4.727446E-01
  4.704749E-01
  4.707596E-01
  4.676406E-01
  4.678390E-01
  4.653879E-01
  4.667430E-01
  4.655635E-01
  4.679747E-01
  4.674356E-01
  4.700101E-01
  4.692030E-01
  4.712000E-01
  4.696808E-01
  4.710261E-01
  4.690728E-01
  4.702590E-01
  4.683556E-01
  4.696575E-01
  4.678118E-01
  4.690917E-01
  4.672341E-01
  4.686394E-01
  4.671024E-01
  4.689496E-01
  4.677960E-01
  4.697795E-01
  4.684219E-01
  4.699141E-01
  4.679553E-01
  4.689631E-01
  4.668232E-01
  4.680294E-01
  4.664023E-01
  4.682481E-01
  4.671451E-01
  4.691999E-01
  4.679179E-01
  4.694864E-01
  4.676027E-01
  4.686708E-01
  4.665482E-01
  4.677037E-01
  4.659642E-01
  4.676878E-01
  4.636783E-01
  4.658357E-01
  4.656117E-01
  4.679451E-01
  4.673628E-01
  4.690546E-01
  4.678557E-01
  4.691685E-01
  4.678609E-01
  4.692145E-01
  4.679386E-01
  4.692441E-01
  4.679104E-01
  4.693048E-01
  4.683208E-01
  4.702801E-01
  4.698442E-01
  4.720087E-01
  4.711819E-01
  4.723316E-01
  4.701157E-01
  4.699453E-01
  4.669351E-01
  4.667727E-01
  4.645533E-01
  4.656665E-01
  4.647685E-01
  4.668587E-01
  4.664044E-01
  4.684635E-01
  4.677346E-01
  4.695321E-01
  4.686954E-01
  4.705010E-01
  4.696155E-01
  4.711278E-01
  4.696302E-01
  4.703174E-01
  4.680363E-01
  4.682721E-01
  4.660628E-01
  4.668942E-01
  4.656133E-01
  4.674069E-01
  4.668353E-01
  4.689112E-01
  4.681712E-01
  4.697313E-01
  4.683028E-01
  4.691941E-01
  4.672896E-01
  4.680239E-01
  4.663321E-01
  4.675939E-01
  4.665747E-01
  4.684044E-01
  4.675995E-01
  4.691449E-01
  4.675929E-01
  4.681546E-01
  4.657299E-01
  4.658716E-01
  4.636778E-01
  4.646680E-01
  4.660579E-01
  4.672782E-01
  4.667083E-01
  4.681673E-01
  4.675304E-01
  4.686912E-01
  4.677133E-01
  4.686791E-01
  4.677213E-01
  4.688336E-01
  4.679782E-01
  4.690365E-01
  4.680191E-01
  4.689993E-01
  4.681873E-01
  4.696948E-01
  4.695285E-01
  4.714310E-01
  4.710751E-01
  4.721156E-01
  4.704705E-01
  4.702762E-01
  4.679401E-01
  4.678627E-01
  4.663798E-01
  4.675455E-01
  4.672548E-01
  4.692167E-01
  4.691823E-01
  4.709109E-01
  4.703210E-01
  4.713698E-01
  4.701476E-01
  4.707318E-01
  4.692664E-01
  4.698082E-01
  4.684180E-01
  4.690488E-01
  4.676987E-01
  4.683400E-01
  4.670573E-01
  4.679095E-01
  4.669917E-01
  4.682688E-01
  4.676782E-01
  4.690478E-01
  4.682736E-01
  4.692593E-01
  4.680576E-01
  4.687426E-01
  4.674853E-01
  4.683847E-01
  4.675338E-01
  4.688763E-01
  4.683305E-01
  4.697158E-01
  4.689287E-01
  4.698724E-01
  4.685833E-01
  4.690939E-01
  4.675177E-01
  4.679176E-01
  4.664211E-01
  4.670994E-01
  4.634235E-01
  4.648883E-01
  4.651175E-01
  4.672151E-01
  4.675482E-01
  4.693007E-01
  4.690250E-01
  4.701025E-01
  4.692206E-01
  4.698151E-01
  4.685850E-01
  4.689901E-01
  4.677916E-01
  4.685174E-01
  4.679281E-01
  4.694182E-01
  4.694849E-01
  4.712170E-01
  4.709039E-01
  4.716485E-01
  4.700107E-01
  4.695361E-01
  4.672243E-01
  4.668684E-01
  4.654101E-01
  4.663019E-01
  4.660154E-01
  4.676152E-01
  4.674341E-01
  4.686835E-01
  4.680210E-01
  4.689698E-01
  4.683172E-01
  4.694789E-01
  4.689792E-01
  4.699821E-01
  4.689275E-01
  4.691220E-01
  4.673092E-01
  4.671106E-01
  4.654453E-01
  4.658945E-01
  4.651519E-01
  4.664987E-01
  4.663794E-01
  4.679565E-01
  4.676944E-01
  4.688684E-01
  4.680890E-01
  4.687707E-01
  4.676418E-01
  4.682051E-01
  4.672290E-01
  4.681800E-01
  4.676973E-01
  4.690461E-01
  4.686571E-01
  4.696677E-01
  4.685299E-01
  4.685667E-01
  4.665277E-01
  4.660439E-01
  4.640718E-01
  4.642689E-01
  4.661653E-01
  4.669564E-01
  4.665886E-01
  4.677899E-01
  4.675906E-01
  4.686812E-01
  4.681761E-01
  4.689154E-01
  4.681349E-01
  4.687058E-01
  4.678204E-01
  4.683104E-01
  4.674035E-01
  4.680418E-01
  4.675516E-01
  4.688457E-01
  4.690393E-01
  4.707174E-01
  4.707165E-01
  4.715657E-01
  4.703412E-01
  4.700220E-01
  4.681391E-01
  4.679166E-01
  4.668125E-01
  4.677120E-01
  4.676415E-01
  4.691543E-01
  4.691588E-01
  4.702991E-01
  4.696920E-01
  4.701988E-01
  4.690898E-01
  4.692961E-01
  4.680867E-01
  4.683425E-01
  4.672588E-01
  4.676489E-01
  4.666758E-01
  4.671708E-01
  4.663476E-01
  4.670757E-01
  4.665512E-01
  4.675628E-01
  4.672003E-01
  4.681806E-01
  4.676024E-01
  4.682731E-01
  4.674258E-01
  4.679907E-01
  4.672634E-01
  4.681513E-01
  4.678433E-01
  4.690887E-01
  4.689248E-01
  4.700217E-01
  4.694487E-01
  4.700043E-01
  4.689178E-01
  4.691019E-01
  4.678176E-01
  4.679500E-01
  4.667303E-01
  4.670498E-01
  4.640828E-01
  4.652935E-01
  4.655072E-01
  4.672092E-01
  4.675333E-01
  4.689865E-01
  4.687934E-01
  4.695871E-01
  4.687219E-01
  4.689452E-01
  4.677062E-01
  4.678277E-01
  4.668067E-01
  4.674621E-01
  4.672048E-01
  4.686727E-01
  4.690274E-01
  4.706625E-01
  4.705963E-01
  4.712610E-01
  4.699169E-01
  4.693792E-01
  4.672992E-01
  4.667329E-01
  4.653116E-01
  4.658101E-01
  4.654390E-01
  4.666060E-01
  4.663773E-01
  4.672879E-01
  4.667051E-01
  4.674506E-01
  4.669943E-01
  4.680266E-01
  4.677466E-01
  4.686110E-01
  4.677742E-01
  4.678746E-01
  4.663822E-01
  4.662212E-01
  4.649761E-01
  4.654690E-01
  4.650294E-01
  4.661991E-01
  4.661215E-01
  4.672998E-01
  4.669652E-01
  4.677673E-01
  4.670741E-01
  4.676283E-01
  4.668447E-01
  4.674777E-01
  4.669232E-01
  4.678767E-01
  4.676287E-01
  4.687397E-01
  4.683795E-01
  4.690597E-01
  4.680139E-01
  4.679261E-01
  4.662586E-01
  4.658996E-01
  4.644174E-01
  4.646720E-01
  4.674912E-01
  4.680229E-01
  4.675624E-01
  4.680966E-01
  4.676290E-01
  4.680910E-01
  4.674789E-01
  4.677702E-01
  4.670240E-01
  4.672560E-01
  4.665280E-01
  4.668508E-01
  4.663086E-01
  4.669616E-01
  4.669229E-01
  4.681942E-01
  4.687119E-01
  4.702303E-01
  4.704815E-01
  4.711840E-01
  4.702613E-01
  4.697963E-01
  4.681015E-01
  4.675031E-01
  4.663088E-01
  4.666096E-01
  4.663684E-01
  4.673761E-01
  4.674469E-01
  4.683891E-01
  4.681407E-01
  4.686572E-01
  4.679914E-01
  4.681690E-01
  4.672802E-01
  4.673675E-01
  4.665194E-01
  4.667575E-01
  4.661372E-01
  4.666446E-01
  4.663008E-01
  4.670518E-01
  4.668637E-01
  4.676216E-01
  4.672559E-01
  4.676765E-01
  4.669127E-01
  4.670214E-01
  4.661707E-01
  4.664881E-01
  4.661077E-01
  4.670217E-01
  4.671678E-01
  4.683474E-01
  4.683876E-01
  4.691128E-01
  4.685104E-01
  4.686423E-01
  4.677051E-01
  4.678448E-01
  4.671837E-01
  4.676884E-01
  4.673033E-01
  4.679115E-01
  4.660251E-01
  4.667860E-01
  4.669888E-01
  4.676765E-01
  4.677121E-01
  4.681681E-01
  4.679098E-01
  4.680109E-01
  4.673713E-01
  4.671472E-01
  4.663503E-01
  4.662344E-01
  4.658477E-01
  4.663905E-01
  4.667719E-01
  4.680009E-01
  4.687922E-01
  4.700086E-01
  4.703065E-01
  4.706041E-01
  4.697337E-01
  4.688845E-01
  4.671894E-01
  4.660679E-01
  4.647142E-01
  4.643999E-01
  4.640176E-01
  4.645226E-01
  4.646255E-01
  4.653038E-01
  4.654420E-01
  4.661983E-01
  4.665081E-01
  4.674128E-01
  4.676489E-01
  4.681286E-01
  4.676426E-01
  4.673412E-01
  4.663224E-01
  4.659527E-01
  4.653420E-01
  4.656610E-01
  4.657172E-01
  4.664170E-01
  4.664559E-01
  4.668116E-01
  4.663774E-01
  4.663519E-01
  4.657778E-01
  4.658845E-01
  4.656393E-01
  4.661420E-01
  4.662322E-01
  4.669206E-01
  4.670056E-01
  4.674977E-01
  4.672308E-01
  4.672872E-01
  4.666064E-01
  4.663906E-01
  4.656736E-01
  4.656835E-01
  4.653912E-01
  4.658951E-01
  4.698106E-01
  4.695908E-01
  4.693052E-01
  4.685089E-01
  4.679274E-01
  4.670823E-01
  4.666132E-01
  4.659627E-01
  4.657248E-01
  4.653258E-01
  4.653586E-01
  4.652545E-01
  4.656169E-01
  4.658882E-01
  4.666655E-01
  4.673436E-01
  4.684185E-01
  4.691514E-01
  4.699273E-01
  4.699853E-01
  4.698190E-01
  4.688931E-01
  4.679701E-01
  4.667246E-01
  4.659886E-01
  4.653454E-01
  4.654258E-01
  4.655893E-01
  4.662957E-01
  4.668164E-01
  4.675919E-01
  4.679162E-01
  4.682815E-01
  4.680680E-01
  4.678908E-01
  4.672685E-01
  4.669272E-01
  4.664267E-01
  4.664483E-01
  4.664388E-01
  4.669341E-01
  4.672382E-01
  4.677770E-01
  4.678052E-01
  4.677878E-01
  4.671207E-01
  4.664883E-01
  4.655170E-01
  4.650425E-01
  4.646907E-01
  4.651281E-01
  4.656939E-01
  4.667506E-01
  4.674285E-01
  4.680592E-01
  4.679409E-01
  4.677191E-01
  4.670346E-01
  4.667649E-01
  4.665705E-01
  4.671218E-01
  4.677352E-01
  4.687521E-01
  4.693159E-01
  4.683424E-01
  4.680658E-01
  4.686420E-01
  4.678354E-01
  4.680223E-01
  4.670247E-01
  4.671662E-01
  4.661678E-01
  4.662895E-01
  4.652755E-01
  4.654790E-01
  4.647387E-01
  4.654291E-01
  4.653066E-01
  4.665901E-01
  4.668761E-01
  4.682820E-01
  4.683826E-01
  4.693328E-01
  4.687722E-01
  4.689368E-01
  4.675777E-01
  4.670841E-01
  4.653738E-01
  4.649472E-01
  4.637099E-01
  4.640150E-01
  4.635539E-01
  4.645076E-01
  4.645113E-01
  4.657914E-01
  4.660418E-01
  4.674708E-01
  4.676632E-01
  4.687078E-01
  4.681767E-01
  4.683207E-01
  4.670080E-01
  4.667829E-01
  4.656518E-01
  4.660607E-01
  4.657192E-01
  4.667151E-01
  4.665035E-01
  4.671338E-01
  4.662463E-01
  4.662061E-01
  4.649535E-01
  4.650099E-01
  4.642733E-01
  4.650609E-01
  4.650068E-01
  4.662157E-01
  4.662312E-01
  4.671953E-01
  4.667717E-01
  4.672489E-01
  4.664246E-01
  4.666912E-01
  4.659095E-01
  4.664748E-01
  4.661697E-01
  4.672323E-01
  4.672566E-01
  4.717100E-01
  4.703269E-01
  4.705322E-01
  4.683321E-01
  4.681330E-01
  4.659386E-01
  4.660479E-01
  4.643243E-01
  4.649523E-01
  4.637291E-01
  4.648123E-01
  4.639897E-01
  4.654109E-01
  4.648539E-01
  4.664613E-01
  4.660091E-01
  4.676378E-01
  4.671128E-01
  4.685537E-01
  4.677090E-01
  4.687107E-01
  4.673689E-01
  4.679229E-01
  4.663030E-01
  4.668353E-01
  4.654678E-01
  4.664714E-01
  4.656892E-01
  4.672676E-01
  4.669271E-01
  4.687058E-01
  4.682473E-01
  4.695766E-01
  4.684198E-01
  4.689812E-01
  4.672168E-01
  4.675269E-01
  4.659511E-01
  4.668271E-01
  4.660099E-01
  4.675933E-01
  4.672014E-01
  4.687717E-01
  4.678914E-01
  4.686061E-01
  4.667463E-01
  4.666774E-01
  4.645212E-01
  4.647918E-01
  4.635450E-01
  4.650252E-01
  4.649108E-01
  4.670985E-01
  4.670740E-01
  4.687612E-01
  4.678768E-01
  4.686940E-01
  4.672700E-01
  4.680839E-01
  4.671841E-01
  4.688258E-01
  4.687047E-01
  4.707354E-01
  4.704225E-01
  4.694920E-01
  4.682010E-01
  4.692303E-01
  4.674154E-01
  4.680720E-01
  4.661247E-01
  4.668484E-01
  4.650520E-01
  4.659155E-01
  4.642402E-01
  4.652772E-01
  4.639052E-01
  4.653800E-01
  4.644851E-01
  4.663280E-01
  4.655783E-01
  4.673278E-01
  4.663268E-01
  4.677792E-01
  4.665036E-01
  4.677033E-01
  4.661654E-01
  4.670949E-01
  4.653447E-01
  4.662158E-01
  4.646166E-01
  4.658173E-01
  4.646286E-01
  4.662231E-01
  4.653696E-01
  4.672491E-01
  4.666285E-01
  4.686208E-01
  4.678693E-01
  4.693929E-01
  4.678726E-01
  4.685375E-01
  4.663838E-01
  4.669116E-01
  4.651963E-01
  4.665650E-01
  4.657331E-01
  4.676412E-01
  4.667693E-01
  4.680793E-01
  4.663156E-01
  4.668241E-01
  4.646807E-01
  4.653720E-01
  4.638816E-01
  4.654382E-01
  4.647328E-01
  4.667913E-01
  4.662482E-01
  4.681920E-01
  4.673653E-01
  4.689480E-01
  4.677437E-01
  4.689886E-01
  4.675597E-01
  4.687661E-01
  4.675027E-01
  4.689964E-01
  4.679746E-01
  4.719544E-01
  4.700128E-01
  4.704409E-01
  4.679031E-01
  4.680546E-01
  4.655823E-01
  4.660680E-01
  4.640786E-01
  4.650843E-01
  4.635797E-01
  4.650024E-01
  4.638344E-01
  4.655014E-01
  4.644728E-01
  4.661731E-01
  4.650951E-01
  4.667107E-01
  4.655635E-01
  4.671527E-01
  4.660119E-01
  4.676040E-01
  4.664294E-01
  4.679468E-01
  4.666853E-01
  4.681481E-01
  4.669003E-01
  4.684576E-01
  4.673713E-01
  4.691175E-01
  4.681807E-01
  4.699463E-01
  4.688094E-01
  4.701158E-01
  4.683201E-01
  4.689385E-01
  4.666572E-01
  4.671918E-01
  4.653055E-01
  4.666277E-01
  4.656996E-01
  4.678670E-01
  4.674123E-01
  4.695214E-01
  4.684644E-01
  4.695794E-01
  4.674249E-01
  4.676828E-01
  4.651961E-01
  4.657648E-01
  4.641365E-01
  4.658419E-01
  4.652929E-01
  4.677401E-01
  4.674551E-01
  4.697099E-01
  4.689239E-01
  4.705796E-01
  4.693023E-01
  4.707155E-01
  4.694793E-01
  4.711344E-01
  4.701678E-01
  4.719222E-01
  4.707437E-01
  4.688822E-01
  4.677065E-01
  4.685593E-01
  4.672238E-01
  4.679203E-01
  4.665294E-01
  4.672628E-01
  4.659170E-01
  4.666322E-01
  4.652175E-01
  4.659091E-01
  4.646221E-01
  4.656209E-01
  4.647354E-01
  4.660759E-01
  4.653454E-01
  4.666308E-01
  4.657204E-01
  4.668283E-01
  4.658260E-01
  4.669266E-01
  4.659452E-01
  4.670472E-01
  4.660496E-01
  4.671549E-01
  4.662023E-01
  4.673699E-01
  4.664464E-01
  4.675882E-01
  4.666253E-01
  4.677897E-01
  4.669454E-01
  4.682577E-01
  4.674396E-01
  4.685177E-01
  4.671946E-01
  4.676655E-01
  4.659183E-01
  4.664024E-01
  4.651803E-01
  4.665339E-01
  4.661799E-01
  4.680365E-01
  4.676110E-01
  4.688627E-01
  4.675639E-01
  4.680302E-01
  4.663157E-01
  4.668303E-01