# vtk DataFile Version 2.0
title
ASCII
DATASET STRUCTURED_GRID
DIMENSIONS   64   64    1
POINTS   4096  float
  0.000000E+00  0.000000E+00  0.000000E+00
  0.000000E+00  3.906250E-01  0.000000E+00
  0.000000E+00  7.812500E-01  0.000000E+00
  0.000000E+00  1.171875E+00  0.000000E+00
  0.000000E+00  1.562500E+00  0.000000E+00
  0.000000E+00  1.953125E+00  0.000000E+00
  0.000000E+00  2.343750E+00  0.000000E+00
  0.000000E+00  2.734375E+00  0.000000E+00
  0.000000E+00  3.125000E+00  0.000000E+00
  0.000000E+00  3.515625E+00  0.000000E+00
  0.000000E+00  3.906250E+00  0.000000E+00
  0.000000E+00  4.296875E+00  0.000000E+00
  0.000000E+00  4.687500E+00  0.000000E+00
  0.000000E+00  5.078125E+00  0.000000E+00
  0.000000E+00  5.468750E+00  0.000000E+00
  0.000000E+00  5.859375E+00  0.000000E+00
  0.000000E+00  6.250000E+00  0.000000E+00
  0.000000E+00  6.640625E+00  0.000000E+00
  0.000000E+00  7.031250E+00  0.000000E+00
  0.000000E+00  7.421875E+00  0.000000E+00
  0.000000E+00  7.812500E+00  0.000000E+00
  0.000000E+00  8.203125E+00  0.000000E+00
  0.000000E+00  8.593750E+00  0.000000E+00
  0.000000E+00  8.984375E+00  0.000000E+00
  0.000000E+00  9.375000E+00  0.000000E+00
  0.000000E+00  9.765625E+00  0.000000E+00
  0.000000E+00  1.015625E+01  0.000000E+00
  0.000000E+00  1.054688E+01  0.000000E+00
  0.000000E+00  1.093750E+01  0.000000E+00
  0.000000E+00  1.132812E+01  0.000000E+00
  0.000000E+00  1.171875E+01  0.000000E+00
  0.000000E+00  1.210938E+01  0.000000E+00
  0.000000E+00  1.250000E+01  0.000000E+00
  0.000000E+00  1.289062E+01  0.000000E+00
  0.000000E+00  1.328125E+01  0.000000E+00
  0.000000E+00  1.367188E+01  0.000000E+00
  0.000000E+00  1.406250E+01  0.000000E+00
  0.000000E+00  1.445312E+01  0.000000E+00
  0.000000E+00  1.484375E+01  0.000000E+00
  0.000000E+00  1.523438E+01  0.000000E+00
  0.000000E+00  1.562500E+01  0.000000E+00
  0.000000E+00  1.601562E+01  0.000000E+00
  0.000000E+00  1.640625E+01  0.000000E+00
  0.000000E+00  1.679688E+01  0.000000E+00
  0.000000E+00  1.718750E+01  0.000000E+00
  0.000000E+00  1.757812E+01  0.000000E+00
  0.000000E+00  1.796875E+01  0.000000E+00
  0.000000E+00  1.835938E+01  0.000000E+00
  0.000000E+00  1.875000E+01  0.000000E+00
  0.000000E+00  1.914062E+01  0.000000E+00
  0.000000E+00  1.953125E+01  0.000000E+00
  0.000000E+00  1.992188E+01  0.000000E+00
  0.000000E+00  2.031250E+01  0.000000E+00
  0.000000E+00  2.070312E+01  0.000000E+00
  0.000000E+00  2.109375E+01  0.000000E+00
  0.000000E+00  2.148438E+01  0.000000E+00
  0.000000E+00  2.187500E+01  0.000000E+00
  0.000000E+00  2.226562E+01  0.000000E+00
  0.000000E+00  2.265625E+01  0.000000E+00
  0.000000E+00  2.304688E+01  0.000000E+00
  0.000000E+00  2.343750E+01  0.000000E+00
  0.000000E+00  2.382812E+01  0.000000E+00
  0.000000E+00  2.421875E+01  0.000000E+00
  0.000000E+00  2.460938E+01  0.000000E+00
  3.906250E-01  0.000000E+00  0.000000E+00
  3.906250E-01  3.906250E-01  0.000000E+00
  3.906250E-01  7.812500E-01  0.000000E+00
  3.906250E-01  1.171875E+00  0.000000E+00
  3.906250E-01  1.562500E+00  0.000000E+00
  3.906250E-01  1.953125E+00  0.000000E+00
  3.906250E-01  2.343750E+00  0.000000E+00
  3.906250E-01  2.734375E+00  0.000000E+00
  3.906250E-01  3.125000E+00  0.000000E+00
  3.906250E-01  3.515625E+00  0.000000E+00
  3.906250E-01  3.906250E+00  0.000000E+00
  3.906250E-01  4.296875E+00  0.000000E+00
  3.906250E-01  4.687500E+00  0.000000E+00
  3.906250E-01  5.078125E+00  0.000000E+00
  3.906250E-01  5.468750E+00  0.000000E+00
  3.906250E-01  5.859375E+00  0.000000E+00
  3.906250E-01  6.250000E+00  0.000000E+00
  3.906250E-01  6.640625E+00  0.000000E+00
  3.906250E-01  7.031250E+00  0.000000E+00
  3.906250E-01  7.421875E+00  0.000000E+00
  3.906250E-01  7.812500E+00  0.000000E+00
  3.906250E-01  8.203125E+00  0.000000E+00
  3.906250E-01  8.593750E+00  0.000000E+00
  3.906250E-01  8.984375E+00  0.000000E+00
  3.906250E-01  9.375000E+00  0.000000E+00
  3.906250E-01  9.765625E+00  0.000000E+00
  3.906250E-01  1.015625E+01  0.000000E+00
  3.906250E-01  1.054688E+01  0.000000E+00
  3.906250E-01  1.093750E+01  0.000000E+00
  3.906250E-01  1.132812E+01  0.000000E+00
  3.906250E-01  1.171875E+01  0.000000E+00
  3.906250E-01  1.210938E+01  0.000000E+00
  3.906250E-01  1.250000E+01  0.000000E+00
  3.906250E-01  1.289062E+01  0.000000E+00
  3.906250E-01  1.328125E+01  0.000000E+00
  3.906250E-01  1.367188E+01  0.000000E+00
  3.906250E-01  1.406250E+01  0.000000E+00
  3.906250E-01  1.445312E+01  0.000000E+00
  3.906250E-01  1.484375E+01  0.000000E+00
  3.906250E-01  1.523438E+01  0.000000E+00
  3.906250E-01  1.562500E+01  0.000000E+00
  3.906250E-01  1.601562E+01  0.000000E+00
  3.906250E-01  1.640625E+01  0.000000E+00
  3.906250E-01  1.679688E+01  0.000000E+00
  3.906250E-01  1.718750E+01  0.000000E+00
  3.906250E-01  1.757812E+01  0.000000E+00
  3.906250E-01  1.796875E+01  0.000000E+00
  3.906250E-01  1.835938E+01  0.000000E+00
  3.906250E-01  1.875000E+01  0.000000E+00
  3.906250E-01  1.914062E+01  0.000000E+00
  3.906250E-01  1.953125E+01  0.000000E+00
  3.906250E-01  1.992188E+01  0.000000E+00
  3.906250E-01  2.031250E+01  0.000000E+00
  3.906250E-01  2.070312E+01  0.000000E+00
  3.906250E-01  2.109375E+01  0.000000E+00
  3.906250E-01  2.148438E+01  0.000000E+00
  3.906250E-01  2.187500E+01  0.000000E+00
  3.906250E-01  2.226562E+01  0.000000E+00
  3.906250E-01  2.265625E+01  0.000000E+00
  3.906250E-01  2.304688E+01  0.000000E+00
  3.906250E-01  2.343750E+01  0.000000E+00
  3.906250E-01  2.382812E+01  0.000000E+00
  3.906250E-01  2.421875E+01  0.000000E+00
  3.906250E-01  2.460938E+01  0.000000E+00
  7.812500E-01  0.000000E+00  0.000000E+00
  7.812500E-01  3.906250E-01  0.000000E+00
  7.812500E-01  7.812500E-01  0.000000E+00
  7.812500E-01  1.171875E+00  0.000000E+00
  7.812500E-01  1.562500E+00  0.000000E+00
  7.812500E-01  1.953125E+00  0.000000E+00
  7.812500E-01  2.343750E+00  0.000000E+00
  7.812500E-01  2.734375E+00  0.000000E+00
  7.812500E-01  3.125000E+00  0.000000E+00
  7.812500E-01  3.515625E+00  0.000000E+00
  7.812500E-01  3.906250E+00  0.000000E+00
  7.812500E-01  4.296875E+00  0.000000E+00
  7.812500E-01  4.687500E+00  0.000000E+00
  7.812500E-01  5.078125E+00  0.000000E+00
  7.812500E-01  5.468750E+00  0.000000E+00
  7.812500E-01  5.859375E+00  0.000000E+00
  7.812500E-01  6.250000E+00  0.000000E+00
  7.812500E-01  6.640625E+00  0.000000E+00
  7.812500E-01  7.031250E+00  0.000000E+00
  7.812500E-01  7.421875E+00  0.000000E+00
  7.812500E-01  7.812500E+00  0.000000E+00
  7.812500E-01  8.203125E+00  0.000000E+00
  7.812500E-01  8.593750E+00  0.000000E+00
  7.812500E-01  8.984375E+00  0.000000E+00
  7.812500E-01  9.375000E+00  0.000000E+00
  7.812500E-01  9.765625E+00  0.000000E+00
  7.812500E-01  1.015625E+01  0.000000E+00
  7.812500E-01  1.054688E+01  0.000000E+00
  7.812500E-01  1.093750E+01  0.000000E+00
  7.812500E-01  1.132812E+01  0.000000E+00
  7.812500E-01  1.171875E+01  0.000000E+00
  7.812500E-01  1.210938E+01  0.000000E+00
  7.812500E-01  1.250000E+01  0.000000E+00
  7.812500E-01  1.289062E+01  0.000000E+00
  7.812500E-01  1.328125E+01  0.000000E+00
  7.812500E-01  1.367188E+01  0.000000E+00
  7.812500E-01  1.406250E+01  0.000000E+00
  7.812500E-01  1.445312E+01  0.000000E+00
  7.812500E-01  1.484375E+01  0.000000E+00
  7.812500E-01  1.523438E+01  0.000000E+00
  7.812500E-01  1.562500E+01  0.000000E+00
  7.812500E-01  1.601562E+01  0.000000E+00
  7.812500E-01  1.640625E+01  0.000000E+00
  7.812500E-01  1.679688E+01  0.000000E+00
  7.812500E-01  1.718750E+01  0.000000E+00
  7.812500E-01  1.757812E+01  0.000000E+00
  7.812500E-01  1.796875E+01  0.000000E+00
  7.812500E-01  1.835938E+01  0.000000E+00
  7.812500E-01  1.875000E+01  0.000000E+00
  7.812500E-01  1.914062E+01  0.000000E+00
  7.812500E-01  1.953125E+01  0.000000E+00
  7.812500E-01  1.992188E+01  0.000000E+00
  7.812500E-01  2.031250E+01  0.000000E+00
  7.812500E-01  2.070312E+01  0.000000E+00
  7.812500E-01  2.109375E+01  0.000000E+00
  7.812500E-01  2.148438E+01  0.000000E+00
  7.812500E-01  2.187500E+01  0.000000E+00
  7.812500E-01  2.226562E+01  0.000000E+00
  7.812500E-01  2.265625E+01  0.000000E+00
  7.812500E-01  2.304688E+01  0.000000E+00
  7.812500E-01  2.343750E+01  0.000000E+00
  7.812500E-01  2.382812E+01  0.000000E+00
  7.812500E-01  2.421875E+01  0.000000E+00
  7.812500E-01  2.460938E+01  0.000000E+00
  1.171875E+00  0.000000E+00  0.000000E+00
  1.171875E+00  3.906250E-01  0.000000E+00
  1.171875E+00  7.812500E-01  0.000000E+00
  1.171875E+00  1.171875E+00  0.000000E+00
  1.171875E+00  1.562500E+00  0.000000E+00
  1.171875E+00  1.953125E+00  0.000000E+00
  1.171875E+00  2.343750E+00  0.000000E+00
  1.171875E+00  2.734375E+00  0.000000E+00
  1.171875E+00  3.125000E+00  0.000000E+00
  1.171875E+00  3.515625E+00  0.000000E+00
  1.171875E+00  3.906250E+00  0.000000E+00
  1.171875E+00  4.296875E+00  0.000000E+00
  1.171875E+00  4.687500E+00  0.000000E+00
  1.171875E+00  5.078125E+00  0.000000E+00
  1.171875E+00  5.468750E+00  0.000000E+00
  1.171875E+00  5.859375E+00  0.000000E+00
  1.171875E+00  6.250000E+00  0.000000E+00
  1.171875E+00  6.640625E+00  0.000000E+00
  1.171875E+00  7.031250E+00  0.000000E+00
  1.171875E+00  7.421875E+00  0.000000E+00
  1.171875E+00  7.812500E+00  0.000000E+00
  1.171875E+00  8.203125E+00  0.000000E+00
  1.171875E+00  8.593750E+00  0.000000E+00
  1.171875E+00  8.984375E+00  0.000000E+00
  1.171875E+00  9.375000E+00  0.000000E+00
  1.171875E+00  9.765625E+00  0.000000E+00
  1.171875E+00  1.015625E+01  0.000000E+00
  1.171875E+00  1.054688E+01  0.000000E+00
  1.171875E+00  1.093750E+01  0.000000E+00
  1.171875E+00  1.132812E+01  0.000000E+00
  1.171875E+00  1.171875E+01  0.000000E+00
  1.171875E+00  1.210938E+01  0.000000E+00
  1.171875E+00  1.250000E+01  0.000000E+00
  1.171875E+00  1.289062E+01  0.000000E+00
  1.171875E+00  1.328125E+01  0.000000E+00
  1.171875E+00  1.367188E+01  0.000000E+00
  1.171875E+00  1.406250E+01  0.000000E+00
  1.171875E+00  1.445312E+01  0.000000E+00
[...]
POINT_DATA   4096
SCALARS CON  float  1
LOOKUP_TABLE default
  4.695381E-01
  4.683820E-01
  4.706293E-01
  4.692040E-01
  4.709505E-01
  4.689864E-01
  4.703286E-01
  4.681852E-01
  4.695687E-01
  4.676187E-01
  4.692653E-01
  4.675924E-01
  4.695108E-01
  4.681022E-01
  4.702619E-01
  4.690240E-01
  4.712107E-01
  4.697884E-01
  4.715561E-01
  4.695274E-01
  4.706171E-01
  4.679916E-01
  4.687066E-01
  4.660107E-01
  4.669569E-01
  4.647116E-01
  4.661996E-01
  4.644615E-01
  4.663402E-01
  4.648576E-01
  4.668909E-01
  4.655155E-01
  4.676431E-01
  4.663407E-01
  4.684712E-01
  4.670399E-01
  4.688749E-01
  4.670040E-01
  4.683423E-01
  4.660490E-01
  4.671732E-01
  4.649650E-01
  4.664865E-01
  4.649109E-01
  4.671492E-01
  4.661885E-01
  4.687735E-01
  4.677993E-01
  4.700288E-01
  4.684874E-01
  4.701407E-01
  4.682166E-01
  4.698035E-01
  4.681190E-01
  4.701071E-01
  4.687654E-01
  4.708392E-01
  4.692402E-01
  4.707863E-01
  4.685941E-01
  4.697305E-01
  4.674953E-01
  4.689895E-01
  4.673827E-01
  4.712786E-01
  4.704959E-01
  4.716006E-01
  4.702506E-01
  4.707154E-01
  4.688734E-01
  4.691532E-01
  4.674756E-01
  4.681905E-01
  4.670662E-01
  4.682982E-01
  4.675579E-01
  4.690243E-01
  4.684110E-01
  4.699498E-01
  4.693735E-01
  4.708818E-01
  4.701440E-01
  4.713096E-01
  4.700533E-01
  4.706047E-01
  4.687770E-01
  4.689510E-01
  4.670486E-01
  4.674765E-01
  4.660887E-01
  4.671516E-01
  4.663518E-01
  4.678137E-01
  4.671484E-01
  4.684883E-01
  4.675257E-01
  4.685127E-01
  4.672550E-01
  4.680734E-01
  4.667798E-01
  4.676471E-01
  4.664164E-01
  4.673069E-01
  4.660518E-01
  4.669141E-01
  4.657001E-01
  4.667350E-01
  4.658377E-01
  4.672784E-01
  4.667673E-01
  4.684544E-01
  4.679722E-01
  4.694748E-01
  4.686848E-01
  4.698975E-01
  4.689652E-01
  4.702397E-01
  4.695261E-01
  4.710433E-01
  4.704375E-01
  4.718198E-01
  4.708366E-01
  4.717158E-01
  4.702912E-01
  4.709654E-01
  4.696547E-01
  4.707088E-01
  4.698731E-01
  4.681504E-01
  4.685493E-01
  4.694435E-01
  4.695887E-01
  4.699212E-01
  4.694296E-01
  4.692713E-01
  4.685636E-01
  4.684723E-01
  4.680312E-01
  4.682907E-01
  4.681941E-01
  4.687513E-01
  4.689028E-01
  4.696586E-01
  4.699316E-01
  4.706710E-01
  4.707206E-01
  4.709939E-01
  4.703689E-01
  4.698722E-01
  4.685484E-01
  4.675928E-01
  4.661636E-01
  4.654767E-01
  4.646129E-01
  4.646434E-01
  4.644885E-01
  4.650940E-01
  4.653212E-01
  4.661218E-01
  4.664011E-01
  4.671559E-01
  4.673097E-01
  4.678469E-01
  4.676681E-01
  4.677567E-01
  4.670596E-01
  4.666585E-01
  4.656289E-01
  4.651710E-01
  4.644242E-01
  4.645664E-01
  4.646237E-01
  4.655930E-01
  4.663000E-01
  4.675816E-01
  4.681974E-01
  4.690399E-01
  4.690349E-01
  4.692996E-01
  4.689619E-01
  4.692388E-01
  4.692098E-01
  4.699079E-01
  4.701653E-01
  4.708105E-01
  4.706102E-01
  4.705063E-01
  4.695212E-01
  4.688932E-01
  4.678565E-01
  4.676849E-01
  4.674543E-01
  4.695138E-01
  4.702954E-01
  4.700093E-01
  4.702452E-01
  4.692922E-01
  4.689820E-01
  4.677938E-01
  4.676280E-01
  4.668961E-01
  4.673378E-01
  4.671875E-01
  4.680626E-01
  4.681643E-01
  4.691505E-01
  4.692867E-01
  4.702651E-01
  4.703287E-01
  4.711055E-01
  4.707787E-01
  4.709720E-01
  4.699475E-01
  4.694792E-01
  4.680029E-01
  4.674268E-01
  4.662308E-01
  4.662588E-01
  4.658371E-01
  4.666155E-01
  4.667456E-01
  4.677708E-01
  4.678287E-01
  4.685346E-01
  4.681503E-01
  4.684213E-01
  4.677044E-01
  4.677811E-01
  4.669888E-01
  4.670606E-01
  4.662912E-01
  4.664038E-01
  4.657206E-01
  4.660099E-01
  4.656222E-01
  4.663073E-01
  4.663411E-01
  4.673635E-01
  4.675496E-01
  4.684953E-01
  4.684163E-01
  4.690257E-01
  4.686883E-01
  4.692331E-01
  4.690524E-01
  4.698942E-01
  4.699906E-01
  4.709189E-01
  4.708080E-01
  4.712538E-01
  4.705282E-01
  4.704411E-01
  4.694617E-01
  4.694953E-01
  4.689588E-01
  4.695738E-01
  4.662320E-01
  4.679949E-01
  4.676562E-01
  4.692189E-01
  4.683472E-01
  4.692754E-01
  4.678972E-01
  4.685902E-01
  4.672692E-01
  4.682327E-01
  4.672759E-01
  4.685969E-01
  4.679419E-01
  4.695035E-01
  4.690311E-01
  4.706945E-01
  4.701838E-01
  4.715955E-01
  4.705768E-01
  4.712536E-01
  4.693895E-01
  4.692902E-01
  4.669078E-01
  4.666811E-01
  4.645938E-01
  4.650061E-01
  4.637437E-01
  4.649853E-01
  4.644087E-01
  4.661141E-01
  4.657723E-01
  4.675221E-01
  4.670815E-01
  4.686169E-01
  4.678494E-01
  4.689425E-01
  4.676374E-01
  4.681620E-01
  4.663656E-01
  4.666027E-01
  4.648251E-01
  4.654238E-01
  4.642979E-01
  4.657001E-01
  4.653386E-01
  4.672765E-01
  4.670909E-01
  4.688165E-01
  4.681194E-01
  4.692177E-01
  4.679974E-01
  4.688550E-01
  4.677449E-01
  4.689884E-01
  4.683425E-01
  4.698832E-01
  4.691754E-01
  4.702433E-01
  4.687744E-01
  4.690517E-01
  4.670580E-01
  4.672890E-01
  4.657672E-01
  4.668357E-01
  4.676890E-01
  4.694633E-01
  4.682638E-01
  4.696007E-01
  4.678339E-01
  4.686879E-01
  4.666988E-01
  4.676633E-01
  4.660672E-01
  4.675688E-01
  4.664949E-01
  4.683919E-01
  4.675553E-01
  4.695680E-01
  4.687825E-01
  4.708066E-01
  4.699606E-01
  4.717785E-01
  4.705148E-01
  4.717002E-01
  4.696774E-01
  4.701436E-01
  4.676329E-01
  4.679894E-01
  4.657941E-01
  4.668185E-01
  4.654749E-01
  4.673240E-01
  4.665902E-01
  4.687210E-01
  4.679249E-01
  4.697227E-01
  4.684497E-01
  4.697608E-01
  4.680922E-01
  4.691447E-01
  4.673480E-01
  4.683675E-01
  4.665980E-01
  4.676922E-01
  4.660575E-01
  4.673670E-01
  4.660298E-01
  4.676816E-01
  4.666557E-01
  4.684969E-01
  4.674719E-01
  4.691195E-01
  4.677747E-01
  4.691008E-01
  4.675665E-01
  4.689211E-01
  4.676301E-01
  4.693434E-01
  4.683664E-01
  4.701924E-01
  4.690411E-01
  4.704332E-01
  4.687251E-01
  4.696340E-01
  4.676949E-01
  4.687131E-01
  4.671821E-01
  4.687481E-01
  4.647062E-01
  4.670027E-01
  4.661565E-01
  4.684252E-01
  4.672176E-01
  4.689704E-01
  4.672884E-01
  4.687469E-01
  4.669952E-01
  4.685702E-01
  4.670436E-01
  4.688826E-01
  4.676226E-01
  4.697198E-01
  4.686947E-01
  4.709570E-01
  4.699459E-01
  4.719826E-01
  4.704585E-01
  4.717305E-01
  4.693212E-01
  4.697860E-01
  4.668508E-01
  4.672099E-01
  4.646150E-01
  4.656670E-01
  4.639425E-01
  4.658479E-01
  4.648081E-01
  4.671560E-01
  4.663192E-01
  4.686784E-01
  4.677126E-01
  4.698299E-01
  4.685108E-01
  4.701610E-01
  4.682864E-01
  4.693646E-01
  4.670150E-01
  4.678387E-01
  4.655440E-01
  4.667473E-01
  4.650814E-01
  4.670118E-01
  4.659854E-01
  4.683015E-01
  4.673120E-01
  4.693228E-01
  4.677953E-01
  4.692165E-01
  4.672437E-01
  4.685089E-01
  4.667098E-01
  4.683935E-01
  4.670717E-01
  4.690705E-01
  4.677314E-01
  4.693332E-01
  4.673228E-01
  4.682061E-01
  4.656950E-01
  4.664968E-01
  4.643801E-01
  4.659397E-01
  4.665818E-01
  4.684451E-01
  4.671357E-01
  4.687874E-01
  4.671377E-01
  4.684647E-01
  4.666336E-01
  4.679846E-01
  4.663623E-01
  4.680243E-01
  4.667178E-01
  4.686361E-01
  4.675160E-01
  4.695805E-01
  4.685961E-01
  4.707752E-01
  4.698201E-01
  4.718499E-01
  4.704972E-01
  4.718878E-01
  4.697614E-01
  4.704290E-01
  4.678330E-01
  4.684307E-01
  4.661987E-01
  4.675025E-01
  4.661322E-01
  4.682347E-01
  4.674169E-01
  4.697272E-01
  4.687760E-01
  4.706997E-01
  4.692410E-01
  4.706676E-01
  4.688154E-01
  4.699915E-01
  4.680245E-01
  4.691890E-01
  4.672813E-01
  4.685605E-01
  4.668233E-01
  4.683302E-01
  4.668616E-01
  4.686335E-01
  4.673597E-01
  4.691914E-01
  4.678109E-01
  4.693935E-01
  4.677022E-01
  4.690257E-01
  4.672306E-01
  4.686555E-01
  4.671386E-01
  4.689172E-01
  4.676898E-01
  4.695691E-01
  4.681940E-01
  4.697087E-01
  4.678663E-01
  4.689677E-01
  4.669084E-01
  4.680641E-01
  4.663092E-01
  4.679095E-01
  4.640441E-01
  4.660883E-01
  4.654379E-01
  4.677021E-01
  4.669398E-01
  4.688610E-01
  4.676650E-01
  4.691866E-01
  4.677023E-01
  4.690734E-01
  4.675715E-01
  4.690454E-01
  4.677556E-01
  4.695316E-01
  4.685856E-01
  4.706577E-01
  4.698416E-01
  4.717674E-01
  4.704785E-01
  4.716532E-01
  4.694856E-01
  4.698694E-01
  4.672091E-01
  4.675313E-01
  4.652501E-01
  4.662790E-01
  4.648422E-01
  4.666565E-01
  4.658059E-01
  4.679551E-01
  4.672143E-01
  4.693125E-01
  4.684168E-01
  4.702779E-01
  4.690529E-01
  4.704804E-01
  4.687380E-01
  4.696365E-01
  4.674679E-01
  4.681623E-01
  4.660890E-01
  4.671769E-01
  4.657058E-01
  4.674506E-01
  4.665188E-01
  4.685473E-01
  4.675815E-01
  4.692900E-01
  4.678328E-01
  4.690405E-01
  4.672333E-01
  4.683487E-01
  4.667241E-01
  4.682147E-01
  4.669992E-01
  4.687506E-01
  4.675080E-01
  4.689042E-01
  4.670617E-01
  4.677986E-01
  4.654633E-01
  4.660590E-01
  4.640095E-01
  4.652557E-01
  4.663274E-01
  4.677451E-01
  4.668003E-01
  4.682301E-01
  4.671747E-01
  4.684398E-01
  4.672373E-01
  4.684196E-01
  4.672087E-01
  4.684386E-01
  4.673076E-01
  4.686426E-01
  4.676567E-01
  4.691961E-01
  4.684675E-01
  4.702625E-01
  4.696867E-01
  4.714187E-01
  4.704941E-01
  4.716115E-01
  4.699307E-01
  4.703483E-01
  4.682293E-01
  4.686078E-01
  4.668674E-01
  4.679349E-01
  4.669992E-01
  4.687722E-01
  4.682754E-01
  4.701451E-01
  4.694277E-01
  4.708605E-01
  4.696246E-01
  4.705805E-01
  4.689901E-01
  4.697438E-01
  4.680916E-01
  4.688910E-01
  4.673595E-01
  4.683332E-01
  4.670170E-01
  4.682327E-01
  4.671578E-01
  4.685706E-01
  4.675999E-01
  4.689899E-01
  4.678706E-01
  4.690313E-01
  4.676817E-01
  4.686992E-01
  4.673552E-01
  4.685363E-01
  4.674623E-01
  4.689228E-01
  4.680300E-01
  4.694936E-01
  4.684031E-01
  4.695126E-01
  4.680083E-01
  4.687615E-01
  4.670585E-01
  4.678231E-01
  4.663318E-01
  4.674413E-01
  4.641413E-01
  4.656824E-01
  4.654346E-01
  4.673468E-01
  4.671557E-01
  4.688477E-01
  4.682493E-01
  4.694551E-01
  4.683923E-01
  4.692357E-01
  4.679708E-01
  4.688088E-01
  4.677436E-01
  4.689551E-01
  4.683546E-01
  4.699927E-01
  4.696318E-01
  4.711988E-01
  4.704084E-01
  4.712479E-01
  4.695957E-01
  4.696611E-01
  4.675305E-01
  4.675370E-01
  4.657657E-01
  4.664297E-01
  4.654251E-01
  4.667782E-01
  4.662620E-01
  4.678687E-01
  4.674108E-01
  4.689496E-01
  4.683500E-01
  4.696853E-01
  4.688006E-01
  4.697516E-01
  4.684037E-01
  4.688867E-01
  4.671794E-01
  4.675223E-01
  4.659556E-01
  4.667009E-01
  4.656991E-01
  4.670231E-01
  4.664642E-01
  4.679921E-01
  4.673704E-01
  4.686203E-01
  4.676146E-01
  4.685054E-01
  4.672786E-01
  4.681479E-01
  4.670907E-01
  4.682433E-01
  4.674587E-01
  4.687407E-01
  4.678478E-01
  4.687645E-01
  4.673215E-01
  4.676517E-01
  4.657660E-01
  4.659503E-01
  4.642885E-01
  4.650337E-01
  4.667380E-01
  4.676721E-01
  4.670857E-01
  4.680738E-01
  4.674549E-01
  4.683485E-01
  4.676042E-01
  4.683699E-01
  4.675161E-01
  4.682078E-01
  4.673358E-01
  4.680915E-01
  4.673908E-01
  4.684308E-01
  4.680929E-01
  4.694894E-01
  4.693811E-01
  4.707628E-01
  4.703320E-01
  4.711138E-01
  4.699364E-01
  4.700221E-01
  4.683968E-01
  4.684123E-01
  4.671095E-01
  4.677369E-01
  4.671527E-01
  4.684066E-01
  4.682045E-01
  4.695293E-01
  4.691121E-01
  4.700293E-01
  4.691340E-01
  4.696149E-01
  4.684014E-01
  4.687148E-01
  4.674803E-01
  4.678928E-01
  4.668437E-01
  4.674937E-01
  4.667009E-01
  4.675907E-01
  4.669832E-01
  4.679689E-01
  4.673474E-01
  4.682159E-01
  4.674134E-01
  4.681030E-01
  4.671962E-01
  4.679079E-01
  4.671591E-01
  4.681232E-01
  4.676399E-01
  4.687894E-01
  4.683390E-01
  4.693432E-01
  4.685992E-01
  4.692353E-01
  4.681413E-01
  4.685276E-01
  4.673335E-01
  4.677774E-01
  4.667692E-01
  4.674735E-01
  4.648557E-01
  4.659326E-01
  4.659831E-01
  4.673505E-01
  4.674358E-01
  4.685987E-01
  4.683006E-01
  4.689882E-01
  4.682194E-01
  4.685339E-01
  4.675678E-01
  4.679111E-01
  4.672088E-01
  4.680055E-01
  4.678439E-01
  4.691236E-01
  4.692331E-01
  4.704547E-01
  4.701407E-01
  4.706416E-01
  4.694717E-01
  4.691935E-01
  4.675169E-01
  4.671207E-01
  4.657175E-01
  4.658819E-01
  4.651606E-01
  4.659630E-01
  4.657244E-01
  4.668184E-01
  4.667052E-01
  4.678058E-01
  4.676122E-01
  4.685464E-01
  4.680830E-01
  4.686397E-01
  4.677292E-01
  4.678555E-01
  4.666430E-01
  4.666895E-01
  4.656533E-01
  4.660869E-01
  4.655372E-01
  4.664188E-01
  4.661627E-01
  4.671276E-01
  4.667609E-01
  4.674959E-01
  4.668812E-01
  4.674424E-01
  4.667837E-01
  4.674366E-01
  4.669630E-01
  4.678176E-01
  4.674736E-01
  4.683107E-01
  4.677650E-01
  4.682335E-01
  4.672265E-01
  4.672555E-01
  4.659550E-01
  4.659330E-01
  4.648610E-01
  4.653112E-01
  4.677571E-01
  4.681865E-01
  4.678756E-01
  4.681707E-01
  4.677198E-01
  4.678930E-01
  4.673507E-01
  4.674671E-01
  4.669046E-01
  4.670444E-01
  4.665650E-01
  4.668691E-01
  4.666512E-01
  4.673076E-01
  4.674888E-01
  4.685060E-01
  4.689000E-01
  4.698827E-01
  4.699469E-01
  4.703394E-01
  4.696737E-01
  4.693730E-01
  4.682291E-01
  4.677866E-01
  4.668621E-01
  4.669230E-01
  4.666359E-01
  4.672959E-01
  4.674269E-01
  4.682464E-01
  4.682757E-01
  4.687918E-01
  4.684114E-01
  4.685136E-01
  4.678008E-01
  4.677087E-01
  4.669630E-01
  4.669904E-01
  4.664809E-01
  4.668052E-01
  4.665856E-01
  4.671252E-01
  4.669937E-01
  4.674717E-01
  4.671466E-01
  4.673589E-01
  4.667848E-01
  4.668572E-01
  4.663174E-01
  4.666104E-01
  4.664269E-01
  4.671112E-01
  4.672356E-01
  4.680487E-01
  4.680841E-01
  4.686222E-01
  4.682860E-01
  4.684699E-01
  4.678949E-01
  4.680055E-01
  4.675136E-01
  4.678071E-01
  4.675206E-01
  4.679726E-01
  4.661565E-01
  4.666126E-01
  4.669708E-01
  4.674620E-01
  4.676961E-01
  4.679341E-01
  4.678354E-01
  4.677217E-01
  4.673184E-01
  4.670117E-01
  4.665815E-01
  4.664453E-01
  4.663763E-01
  4.667373E-01
  4.672006E-01
  4.679989E-01
  4.686760E-01
  4.693756E-01
  4.696240E-01
  4.696337E-01
  4.690739E-01
  4.683378E-01
  4.672619E-01
  4.663442E-01
  4.654361E-01
  4.649641E-01
  4.646538E-01
  4.647980E-01
  4.650212E-01
  4.655643E-01
  4.660413E-01
  4.666999E-01
  4.671556E-01
  4.676481E-01
  4.677910E-01
  4.678514E-01
  4.675148E-01
  4.671554E-01
  4.665673E-01
  4.661923E-01
  4.658184E-01
  4.658050E-01
  4.658118E-01
  4.660732E-01
  4.661741E-01
  4.663496E-01
  4.662538E-01
  4.662255E-01
  4.660146E-01
  4.660136E-01
  4.659687E-01
  4.662190E-01
  4.664298E-01
  4.668586E-01
  4.671114E-01
  4.674228E-01
  4.674180E-01
  4.673883E-01
  4.670397E-01
  4.667493E-01
  4.662912E-01
  4.660742E-01
  4.658579E-01
  4.659933E-01
  4.692609E-01
  4.689156E-01
  4.689752E-01
  4.682298E-01
  4.679843E-01
  4.670729E-01
  4.668061E-01
  4.659955E-01
  4.659169E-01
  4.653504E-01
  4.655534E-01
  4.653003E-01
  4.658470E-01
  4.659568E-01
  4.668525E-01
  4.672392E-01
  4.682666E-01
  4.685753E-01
  4.692879E-01
  4.690761E-01
  4.691557E-01
  4.683340E-01
  4.679675E-01
  4.669673E-01
  4.667247E-01
  4.661083E-01
  4.664043E-01
  4.663454E-01
  4.670886E-01
  4.672745E-01
  4.680224E-01
  4.679916E-01
  4.683663E-01
  4.679007E-01
  4.678829E-01
  4.671576E-01
  4.670715E-01
  4.664807E-01
  4.666909E-01
  4.664728E-01
  4.670216E-01
  4.670016E-01
  4.675373E-01
  4.672829E-01
  4.674222E-01
  4.667255E-01
  4.665180E-01
  4.656925E-01
  4.656360E-01
  4.652190E-01
  4.657240E-01
  4.658665E-01
  4.667740E-01
  4.670591E-01
  4.678332E-01
  4.677826E-01
  4.681542E-01
  4.677809E-01
  4.680139E-01
  4.677126E-01
  4.681728E-01
  4.681424E-01
  4.687938E-01
  4.687853E-01
  4.677178E-01
  4.672845E-01
  4.680524E-01
  4.674369E-01
  4.679551E-01
  4.670700E-01
  4.673425E-01
  4.662716E-01
  4.664477E-01
  4.653955E-01
  4.657247E-01
  4.649642E-01
  4.657023E-01
  4.654137E-01
  4.666033E-01
  4.666490E-01
  4.679686E-01
  4.678883E-01
  4.688282E-01
  4.681760E-01
  4.684617E-01
  4.672054E-01
  4.670589E-01
  4.656222E-01
  4.655665E-01
  4.644520E-01
  4.648695E-01
  4.642860E-01
  4.652109E-01
  4.650534E-01
  4.662853E-01
  4.662873E-01
  4.675071E-01
  4.673114E-01
  4.681616E-01
  4.674824E-01
  4.678371E-01
  4.667730E-01
  4.669546E-01
  4.659662E-01
  4.664245E-01
  4.657951E-01
  4.665494E-01
  4.660399E-01
  4.667013E-01
  4.659382E-01
  4.663021E-01
  4.653290E-01
  4.656656E-01
  4.648742E-01
  4.655546E-01
  4.651720E-01
  4.662156E-01
  4.660605E-01
  4.671493E-01
  4.668617E-01
  4.676888E-01
  4.670871E-01
  4.676319E-01
  4.668499E-01
  4.673542E-01
  4.666670E-01
  4.673567E-01
  4.668750E-01
  4.706837E-01
  4.694580E-01
  4.698843E-01
  4.681373E-01
  4.682074E-01
  4.663214E-01
  4.664674E-01
  4.648283E-01
  4.653285E-01
  4.640892E-01
  4.649901E-01
  4.641282E-01
  4.653736E-01
  4.648176E-01
  4.663174E-01
  4.659388E-01
  4.675050E-01
  4.670511E-01
  4.683896E-01
  4.675776E-01
  4.684856E-01
  4.672557E-01
  4.678497E-01
  4.664814E-01
  4.671446E-01
  4.660351E-01
  4.670828E-01
  4.663901E-01
  4.677853E-01
  4.672853E-01
  4.686678E-01
  4.679457E-01
  4.689427E-01
  4.677604E-01
  4.683361E-01
  4.668819E-01
  4.674123E-01
  4.661586E-01
  4.670837E-01
  4.663059E-01
  4.676425E-01
  4.670754E-01
  4.683390E-01
  4.674159E-01
  4.681308E-01
  4.666236E-01
  4.668974E-01
  4.652365E-01
  4.657071E-01
  4.645534E-01
  4.657095E-01
  4.652377E-01
  4.668987E-01
  4.666445E-01
  4.682225E-01
  4.676669E-01
  4.688683E-01
  4.680108E-01
  4.690873E-01
  4.683017E-01
  4.695806E-01
  4.690053E-01
  4.703717E-01
  4.696716E-01
  4.687943E-01
  4.676680E-01
  4.686418E-01
  4.673341E-01
  4.681004E-01
  4.665997E-01
  4.672182E-01
  4.656344E-01
  4.662471E-01
  4.647459E-01
  4.655396E-01
  4.643180E-01
  4.654703E-01
  4.646419E-01
  4.661563E-01
  4.655873E-01
  4.672006E-01
  4.665432E-01
  4.678944E-01
  4.668532E-01
  4.677771E-01
  4.663511E-01
  4.670060E-01
  4.654711E-01
  4.661853E-01
  4.648524E-01
  4.658640E-01
  4.648712E-01
  4.662192E-01
  4.655216E-01
  4.670906E-01
  4.665048E-01
  4.680415E-01
  4.672583E-01
  4.684457E-01
  4.672234E-01
  4.679878E-01
  4.664784E-01
  4.671801E-01
  4.658490E-01
  4.668990E-01
  4.659494E-01
  4.672638E-01
  4.663574E-01
  4.674780E-01
  4.662185E-01
  4.669647E-01
  4.654530E-01
  4.661655E-01
  4.648588E-01
  4.659602E-01
  4.651237E-01
  4.666630E-01
  4.661394E-01
  4.678142E-01
  4.672418E-01
  4.687160E-01
  4.678520E-01
  4.690181E-01
  4.678989E-01
  4.689098E-01
  4.677465E-01
  4.687972E-01
  4.677037E-01
  4.712428E-01
  4.696849E-01
  4.700452E-01
  4.680910E-01
  4.682319E-01
  4.662625E-01
  4.665703E-01
  4.648934E-01
  4.655525E-01
  4.642295E-01
  4.652119E-01
  4.641720E-01
  4.654016E-01
  4.645793E-01
  4.659950E-01
  4.653140E-01
  4.668058E-01
  4.661170E-01
  4.675115E-01
  4.666501E-01
  4.678320E-01
  4.667672E-01
  4.678048E-01
  4.666922E-01
  4.677913E-01
  4.668333E-01
  4.681381E-01
  4.673776E-01
  4.688091E-01
  4.680522E-01
  4.693354E-01
  4.682837E-01
  4.691701E-01
  4.676995E-01
  4.682451E-01
  4.666087E-01
  4.672275E-01
  4.659093E-01
  4.670278E-01
  4.662676E-01
  4.678505E-01
  4.673232E-01
  4.688282E-01
  4.679205E-01
  4.688408E-01
  4.673068E-01
  4.677387E-01
  4.659969E-01
  4.665643E-01
  4.652666E-01
  4.664680E-01
  4.658304E-01
  4.675609E-01
  4.672169E-01
  4.689807E-01
  4.684635E-01
  4.699523E-01
  4.691728E-01
  4.704937E-01
  4.696623E-01
  4.710059E-01
  4.701876E-01
  4.714451E-01
  4.703844E-01
  4.687436E-01
  4.677468E-01
  4.683248E-01
  4.673778E-01
  4.679668E-01
  4.669907E-01
  4.675130E-01
  4.664419E-01
  4.668628E-01
  4.657206E-01
  4.661443E-01
  4.651123E-01
  4.657596E-01
  4.650331E-01
  4.660043E-01
  4.655442E-01
  4.666611E-01
  4.661963E-01
  4.671709E-01
  4.664751E-01
  4.671978E-01
  4.662953E-01
  4.669019E-01
  4.659880E-01
  4.666714E-01
  4.658860E-01
  4.667097E-01
  4.660488E-01
  4.669721E-01
  4.663907E-01
  4.673770E-01
  4.668310E-01
  4.677964E-01
  4.671405E-01
  4.678956E-01
  4.669593E-01
  4.674396E-01
  4.663329E-01
  4.668267E-01
  4.659376E-01
  4.667955E-01
  4.662972E-01
  4.674366E-01
  4.670117E-01
  4.679941E-01
  4.672425E-01
  4.678448E-01
  4.667858E-01
  4.672457E-01