# vtk DataFile Version 2.0
title
ASCII
DATASET STRUCTURED_GRID
DIMENSIONS   64   64    1
POINTS   4096  float
  0.000000E+00  0.000000E+00  0.000000E+00
  0.000000E+00  3.906250E-01  0.000000E+00
  0.000000E+00  7.812500E-01  0.000000E+00
  0.000000E+00  1.171875E+00  0.000000E+00
  0.000000E+00  1.562500E+00  0.000000E+00
  0.000000E+00  1.953125E+00  0.000000E+00
  0.000000E+00  2.343750E+00  0.000000E+00
  0.000000E+00  2.734375E+00  0.000000E+00
  0.000000E+00  3.125000E+00  0.000000E+00
  0.000000E+00  3.515625E+00  0.000000E+00
  0.000000E+00  3.906250E+00  0.000000E+00
  0.000000E+00  4.296875E+00  0.000000E+00
  0.000000E+00  4.687500E+00  0.000000E+00
  0.000000E+00  5.078125E+00  0.000000E+00
  0.000000E+00  5.468750E+00  0.000000E+00
  0.000000E+00  5.859375E+00  0.000000E+00
  0.000000E+00  6.250000E+00  0.000000E+00
  0.000000E+00  6.640625E+00  0.000000E+00
  0.000000E+00  7.031250E+00  0.000000E+00
  0.000000E+00  7.421875E+00  0.000000E+00
  0.000000E+00  7.812500E+00  0.000000E+00
  0.000000E+00  8.203125E+00  0.000000E+00
  0.000000E+00  8.593750E+00  0.000000E+00
  0.000000E+00  8.984375E+00  0.000000E+00
  0.000000E+00  9.375000E+00  0.000000E+00
  0.000000E+00  9.765625E+00  0.000000E+00
  0.000000E+00  1.015625E+01  0.000000E+00
  0.000000E+00  1.054688E+01  0.000000E+00
  0.000000E+00  1.093750E+01  0.000000E+00
  0.000000E+00  1.132812E+01  0.000000E+00
  0.000000E+00  1.171875E+01  0.000000E+00
  0.000000E+00  1.210938E+01  0.000000E+00
  0.000000E+00  1.250000E+01  0.000000E+00
  0.000000E+00  1.289062E+01  0.000000E+00
  0.000000E+00  1.328125E+01  0.000000E+00
  0.000000E+00  1.367188E+01  0.000000E+00
  0.000000E+00  1.406250E+01  0.000000E+00
  0.000000E+00  1.445312E+01  0.000000E+00
  0.000000E+00  1.484375E+01  0.000000E+00
  0.000000E+00  1.523438E+01  0.000000E+00
  0.000000E+00  1.562500E+01  0.000000E+00
  0.000000E+00  1.601562E+01  0.000000E+00
  0.000000E+00  1.640625E+01  0.000000E+00
  0.000000E+00  1.679688E+01  0.000000E+00
  0.000000E+00  1.718750E+01  0.000000E+00
  0.000000E+00  1.757812E+01  0.000000E+00
  0.000000E+00  1.796875E+01  0.000000E+00
  0.000000E+00  1.835938E+01  0.000000E+00
  0.000000E+00  1.875000E+01  0.000000E+00
  0.000000E+00  1.914062E+01  0.000000E+00
  0.000000E+00  1.953125E+01  0.000000E+00
  0.000000E+00  1.992188E+01  0.000000E+00
  0.000000E+00  2.031250E+01  0.000000E+00
  0.000000E+00  2.070312E+01  0.000000E+00
  0.000000E+00  2.109375E+01  0.000000E+00
  0.000000E+00  2.148438E+01  0.000000E+00
  0.000000E+00  2.187500E+01  0.000000E+00
  0.000000E+00  2.226562E+01  0.000000E+00
  0.000000E+00  2.265625E+01  0.000000E+00
  0.000000E+00  2.304688E+01  0.000000E+00
  0.000000E+00  2.343750E+01  0.000000E+00
  0.000000E+00  2.382812E+01  0.000000E+00
  0.000000E+00  2.421875E+01  0.000000E+00
  0.000000E+00  2.460938E+01  0.000000E+00
  3.906250E-01  0.000000E+00  0.000000E+00
  3.906250E-01  3.906250E-01  0.000000E+00
  3.906250E-01  7.812500E-01  0.000000E+00
  3.906250E-01  1.171875E+00  0.000000E+00
  3.906250E-01  1.562500E+00  0.000000E+00
  3.906250E-01  1.953125E+00  0.000000E+00
  3.906250E-01  2.343750E+00  0.000000E+00
  3.906250E-01  2.734375E+00  0.000000E+00
  3.906250E-01  3.125000E+00  0.000000E+00
  3.906250E-01  3.515625E+00  0.000000E+00
  3.906250E-01  3.906250E+00  0.000000E+00
  3.906250E-01  4.296875E+00  0.000000E+00
  3.906250E-01  4.687500E+00  0.000000E+00
  3.906250E-01  5.078125E+00  0.000000E+00
  3.906250E-01  5.468750E+00  0.000000E+00
  3.906250E-01  5.859375E+00  0.000000E+00
  3.906250E-01  6.250000E+00  0.000000E+00
  3.906250E-01  6.640625E+00  0.000000E+00
  3.906250E-01  7.031250E+00  0.000000E+00
  3.906250E-01  7.421875E+00  0.000000E+00
  3.906250E-01  7.812500E+00  0.000000E+00
  3.906250E-01  8.203125E+00  0.000000E+00
  3.906250E-01  8.593750E+00  0.000000E+00
  3.906250E-01  8.984375E+00  0.000000E+00
  3.906250E-01  9.375000E+00  0.000000E+00
  3.906250E-01  9.765625E+00  0.000000E+00
  3.906250E-01  1.015625E+01  0.000000E+00
  3.906250E-01  1.054688E+01  0.000000E+00
  3.906250E-01  1.093750E+01  0.000000E+00
  3.906250E-01  1.132812E+01  0.000000E+00
  3.906250E-01  1.171875E+01  0.000000E+00
  3.906250E-01  1.210938E+01  0.000000E+00
  3.906250E-01  1.250000E+01  0.000000E+00
  3.906250E-01  1.289062E+01  0.000000E+00
  3.906250E-01  1.328125E+01  0.000000E+00
  3.906250E-01  1.367188E+01  0.000000E+00
  3.906250E-01  1.406250E+01  0.000000E+00
  3.906250E-01  1.445312E+01  0.000000E+00
  3.906250E-01  1.484375E+01  0.000000E+00
  3.906250E-01  1.523438E+01  0.000000E+00
  3.906250E-01  1.562500E+01  0.000000E+00
  3.906250E-01  1.601562E+01  0.000000E+00
  3.906250E-01  1.640625E+01  0.000000E+00
  3.906250E-01  1.679688E+01  0.000000E+00
  3.906250E-01  1.718750E+01  0.000000E+00
  3.906250E-01  1.757812E+01  0.000000E+00
  3.906250E-01  1.796875E+01  0.000000E+00
  3.906250E-01  1.835938E+01  0.000000E+00
  3.906250E-01  1.875000E+01  0.000000E+00
  3.906250E-01  1.914062E+01  0.000000E+00
  3.906250E-01  1.953125E+01  0.000000E+00
  3.906250E-01  1.992188E+01  0.000000E+00
  3.906250E-01  2.031250E+01  0.000000E+00
  3.906250E-01  2.070312E+01  0.000000E+00
  3.906250E-01  2.109375E+01  0.000000E+00
  3.906250E-01  2.148438E+01  0.000000E+00
  3.906250E-01  2.187500E+01  0.000000E+00
  3.906250E-01  2.226562E+01  0.000000E+00
  3.906250E-01  2.265625E+01  0.000000E+00
  3.906250E-01  2.304688E+01  0.000000E+00
  3.906250E-01  2.343750E+01  0.000000E+00
  3.906250E-01  2.382812E+01  0.000000E+00
  3.906250E-01  2.421875E+01  0.000000E+00
  3.906250E-01  2.460938E+01  0.000000E+00
  7.812500E-01  0.000000E+00  0.000000E+00
  7.812500E-01  3.906250E-01  0.000000E+00
  7.812500E-01  7.812500E-01  0.000000E+00
  7.812500E-01  1.171875E+00  0.000000E+00
  7.812500E-01  1.562500E+00  0.000000E+00
  7.812500E-01  1.953125E+00  0.000000E+00
  7.812500E-01  2.343750E+00  0.000000E+00
  7.812500E-01  2.734375E+00  0.000000E+00
  7.812500E-01  3.125000E+00  0.000000E+00
  7.812500E-01  3.515625E+00  0.000000E+00
  7.812500E-01  3.906250E+00  0.000000E+00
  7.812500E-01  4.296875E+00  0.000000E+00
  7.812500E-01  4.687500E+00  0.000000E+00
  7.812500E-01  5.078125E+00  0.000000E+00
  7.812500E-01  5.468750E+00  0.000000E+00
  7.812500E-01  5.859375E+00  0.000000E+00
  7.812500E-01  6.250000E+00  0.000000E+00
  7.812500E-01  6.640625E+00  0.000000E+00
  7.812500E-01  7.031250E+00  0.000000E+00
  7.812500E-01  7.421875E+00  0.000000E+00
  7.812500E-01  7.812500E+00  0.000000E+00
  7.812500E-01  8.203125E+00  0.000000E+00
  7.812500E-01  8.593750E+00  0.000000E+00
  7.812500E-01  8.984375E+00  0.000000E+00
  7.812500E-01  9.375000E+00  0.000000E+00
  7.812500E-01  9.765625E+00  0.000000E+00
  7.812500E-01  1.015625E+01  0.000000E+00
  7.812500E-01  1.054688E+01  0.000000E+00
  7.812500E-01  1.093750E+01  0.000000E+00
  7.812500E-01  1.132812E+01  0.000000E+00
  7.812500E-01  1.171875E+01  0.000000E+00
  7.812500E-01  1.210938E+01  0.000000E+00
  7.812500E-01  1.250000E+01  0.000000E+00
  7.812500E-01  1.289062E+01  0.000000E+00
  7.812500E-01  1.328125E+01  0.000000E+00
  7.812500E-01  1.367188E+01  0.000000E+00
  7.812500E-01  1.406250E+01  0.000000E+00
  7.812500E-01  1.445312E+01  0.000000E+00
  7.812500E-01  1.484375E+01  0.000000E+00
  7.812500E-01  1.523438E+01  0.000000E+00
  7.812500E-01  1.562500E+01  0.000000E+00
  7.812500E-01  1.601562E+01  0.000000E+00
  7.812500E-01  1.640625E+01  0.000000E+00
  7.812500E-01  1.679688E+01  0.000000E+00
  7.812500E-01  1.718750E+01  0.000000E+00
  7.812500E-01  1.757812E+01  0.000000E+00
  7.812500E-01  1.796875E+01  0.000000E+00
  7.812500E-01  1.835938E+01  0.000000E+00
  7.812500E-01  1.875000E+01  0.000000E+00
  7.812500E-01  1.914062E+01  0.000000E+00
  7.812500E-01  1.953125E+01  0.000000E+00
  7.812500E-01  1.992188E+01  0.000000E+00
  7.812500E-01  2.031250E+01  0.000000E+00
  7.812500E-01  2.070312E+01  0.000000E+00
  7.812500E-01  2.109375E+01  0.000000E+00
  7.812500E-01  2.148438E+01  0.000000E+00
  7.812500E-01  2.187500E+01  0.000000E+00
  7.812500E-01  2.226562E+01  0.000000E+00
  7.812500E-01  2.265625E+01  0.000000E+00
  7.812500E-01  2.304688E+01  0.000000E+00
  7.812500E-01  2.343750E+01  0.000000E+00
  7.812500E-01  2.382812E+01  0.000000E+00
  7.812500E-01  2.421875E+01  0.000000E+00
  7.812500E-01  2.460938E+01  0.000000E+00
  1.171875E+00  0.000000E+00  0.000000E+00
  1.171875E+00  3.906250E-01  0.000000E+00
  1.171875E+00  7.812500E-01  0.000000E+00
  1.171875E+00  1.171875E+00  0.000000E+00
  1.171875E+00  1.562500E+00  0.000000E+00
  1.171875E+00  1.953125E+00  0.000000E+00
  1.171875E+00  2.343750E+00  0.000000E+00
  1.171875E+00  2.734375E+00  0.000000E+00
  1.171875E+00  3.125000E+00  0.000000E+00
  1.171875E+00  3.515625E+00  0.000000E+00
  1.171875E+00  3.906250E+00  0.000000E+00
  1.171875E+00  4.296875E+00  0.000000E+00
  1.171875E+00  4.687500E+00  0.000000E+00
  1.171875E+00  5.078125E+00  0.000000E+00
  1.171875E+00  5.468750E+00  0.000000E+00
  1.171875E+00  5.859375E+00  0.000000E+00
  1.171875E+00  6.250000E+00  0.000000E+00
  1.171875E+00  6.640625E+00  0.000000E+00
  1.171875E+00  7.031250E+00  0.000000E+00
  1.171875E+00  7.421875E+00  0.000000E+00
  1.171875E+00  7.812500E+00  0.000000E+00
  1.171875E+00  8.203125E+00  0.000000E+00
  1.171875E+00  8.593750E+00  0.000000E+00
  1.171875E+00  8.984375E+00  0.000000E+00
  1.171875E+00  9.375000E+00  0.000000E+00
  1.171875E+00  9.765625E+00  0.000000E+00
  1.171875E+00  1.015625E+01  0.000000E+00
  1.171875E+00  1.054688E+01  0.000000E+00
  1.171875E+00  1.093750E+01  0.000000E+00
  1.171875E+00  1.132812E+01  0.000000E+00
  1.171875E+00  1.171875E+01  0.000000E+00
  1.171875E+00  1.210938E+01  0.000000E+00
  1.171875E+00  1.250000E+01  0.000000E+00
  1.171875E+00  1.289062E+01  0.000000E+00
  1.171875E+00  1.328125E+01  0.000000E+00
  1.171875E+00  1.367188E+01  0.000000E+00
  1.171875E+00  1.406250E+01  0.000000E+00
  1.171875E+00  1.445312E+01  0.000000E+00
[...]
POINT_DATA   4096
SCALARS CON  float  1
LOOKUP_TABLE default
  4.694994E-01
  4.685681E-01
  4.711521E-01
  4.696770E-01
  4.714154E-01
  4.691694E-01
  4.704795E-01
  4.682058E-01
  4.697575E-01
  4.677890E-01
  4.695621E-01
  4.677124E-01
  4.695903E-01
  4.679370E-01
  4.701317E-01
  4.688292E-01
  4.712420E-01
  4.698640E-01
  4.718370E-01
  4.697158E-01
  4.708178E-01
  4.679265E-01
  4.685648E-01
  4.656328E-01
  4.666460E-01
  4.643784E-01
  4.661436E-01
  4.645103E-01
  4.666596E-01
  4.651461E-01
  4.672484E-01
  4.656678E-01
  4.677915E-01
  4.663287E-01
  4.685698E-01
  4.670811E-01
  4.690515E-01
  4.670518E-01
  4.683912E-01
  4.658307E-01
  4.668659E-01
  4.643773E-01
  4.658817E-01
  4.641801E-01
  4.666250E-01
  4.657960E-01
  4.688112E-01
  4.680682E-01
  4.706322E-01
  4.690309E-01
  4.706301E-01
  4.683293E-01
  4.697799E-01
  4.679360E-01
  4.702204E-01
  4.691614E-01
  4.717528E-01
  4.703023E-01
  4.719120E-01
  4.692894E-01
  4.700454E-01
  4.672665E-01
  4.686362E-01
  4.669767E-01
  4.713652E-01
  4.708390E-01
  4.722296E-01
  4.708233E-01
  4.711896E-01
  4.690162E-01
  4.691509E-01
  4.673239E-01
  4.681916E-01
  4.671674E-01
  4.686259E-01
  4.678593E-01
  4.693103E-01
  4.684542E-01
  4.699025E-01
  4.691793E-01
  4.707994E-01
  4.701079E-01
  4.714691E-01
  4.701995E-01
  4.707840E-01
  4.687614E-01
  4.688493E-01
  4.667400E-01
  4.671752E-01
  4.657436E-01
  4.669958E-01
  4.663029E-01
  4.680315E-01
  4.674507E-01
  4.689340E-01
  4.678627E-01
  4.687906E-01
  4.672829E-01
  4.680111E-01
  4.665482E-01
  4.674680E-01
  4.661932E-01
  4.671739E-01
  4.658015E-01
  4.666069E-01
  4.651363E-01
  4.660721E-01
  4.650272E-01
  4.666177E-01
  4.662691E-01
  4.683581E-01
  4.681214E-01
  4.698923E-01
  4.690462E-01
  4.701921E-01
  4.689991E-01
  4.702442E-01
  4.695440E-01
  4.714115E-01
  4.711071E-01
  4.728706E-01
  4.719158E-01
  4.726986E-01
  4.708188E-01
  4.711118E-01
  4.693764E-01
  4.703745E-01
  4.695900E-01
  4.679849E-01
  4.688458E-01
  4.700731E-01
  4.702952E-01
  4.704498E-01
  4.696425E-01
  4.691938E-01
  4.683466E-01
  4.682977E-01
  4.680161E-01
  4.684397E-01
  4.684170E-01
  4.689283E-01
  4.689547E-01
  4.695851E-01
  4.698020E-01
  4.705800E-01
  4.707361E-01
  4.711250E-01
  4.705634E-01
  4.700432E-01
  4.686125E-01
  4.675051E-01
  4.659366E-01
  4.651759E-01
  4.643314E-01
  4.644643E-01
  4.644514E-01
  4.651798E-01
  4.654642E-01
  4.662436E-01
  4.664488E-01
  4.671247E-01
  4.672370E-01
  4.677837E-01
  4.676431E-01
  4.677541E-01
  4.670212E-01
  4.665069E-01
  4.652992E-01
  4.646362E-01
  4.637090E-01
  4.637474E-01
  4.638180E-01
  4.649360E-01
  4.659099E-01
  4.675184E-01
  4.684290E-01
  4.694379E-01
  4.694131E-01
  4.694901E-01
  4.688980E-01
  4.690022E-01
  4.690088E-01
  4.699872E-01
  4.706842E-01
  4.717494E-01
  4.717559E-01
  4.715310E-01
  4.701208E-01
  4.689232E-01
  4.673976E-01
  4.670087E-01
  4.669022E-01
  4.694362E-01
  4.707097E-01
  4.705891E-01
  4.709117E-01
  4.696199E-01
  4.690098E-01
  4.673783E-01
  4.671241E-01
  4.663635E-01
  4.671315E-01
  4.671769E-01
  4.683293E-01
  4.683643E-01
  4.693132E-01
  4.691852E-01
  4.701345E-01
  4.701170E-01
  4.711030E-01
  4.708540E-01
  4.712584E-01
  4.701676E-01
  4.696990E-01
  4.679743E-01
  4.673124E-01
  4.658955E-01
  4.659526E-01
  4.654674E-01
  4.664281E-01
  4.666031E-01
  4.678437E-01
  4.678905E-01
  4.686802E-01
  4.681238E-01
  4.683542E-01
  4.674327E-01
  4.675413E-01
  4.666807E-01
  4.669067E-01
  4.661053E-01
  4.662980E-01
  4.654376E-01
  4.656749E-01
  4.650762E-01
  4.658138E-01
  4.658504E-01
  4.671610E-01
  4.674995E-01
  4.687181E-01
  4.686030E-01
  4.691980E-01
  4.685685E-01
  4.690039E-01
  4.686611E-01
  4.697065E-01
  4.699986E-01
  4.713588E-01
  4.714162E-01
  4.719971E-01
  4.709839E-01
  4.706045E-01
  4.691206E-01
  4.689523E-01
  4.682800E-01
  4.691961E-01
  4.659332E-01
  4.683074E-01
  4.681263E-01
  4.698769E-01
  4.686118E-01
  4.692949E-01
  4.673880E-01
  4.680296E-01
  4.665807E-01
  4.678963E-01
  4.670378E-01
  4.686903E-01
  4.679276E-01
  4.695735E-01
  4.688476E-01
  4.706184E-01
  4.700139E-01
  4.717262E-01
  4.707274E-01
  4.716736E-01
  4.696619E-01
  4.695997E-01
  4.668688E-01
  4.665866E-01
  4.641933E-01
  4.646979E-01
  4.633134E-01
  4.647909E-01
  4.641456E-01
  4.660477E-01
  4.655480E-01
  4.674184E-01
  4.668066E-01
  4.685214E-01
  4.676786E-01
  4.690251E-01
  4.676467E-01
  4.683411E-01
  4.663320E-01
  4.666006E-01
  4.645304E-01
  4.651728E-01
  4.638573E-01
  4.654668E-01
  4.650917E-01
  4.673707E-01
  4.672139E-01
  4.692001E-01
  4.683315E-01
  4.694195E-01
  4.677786E-01
  4.685073E-01
  4.670644E-01
  4.684705E-01
  4.678883E-01
  4.699281E-01
  4.693998E-01
  4.707856E-01
  4.690738E-01
  4.691792E-01
  4.666054E-01
  4.666438E-01
  4.648648E-01
  4.662772E-01
  4.675631E-01
  4.698222E-01
  4.686458E-01
  4.701056E-01
  4.679154E-01
  4.685429E-01
  4.660315E-01
  4.669686E-01
  4.652580E-01
  4.671611E-01
  4.662301E-01
  4.685159E-01
  4.675828E-01
  4.696748E-01
  4.685922E-01
  4.707061E-01
  4.697589E-01
  4.719190E-01
  4.707097E-01
  4.722038E-01
  4.700255E-01
  4.705126E-01
  4.676048E-01
  4.678738E-01
  4.653248E-01
  4.664170E-01
  4.649207E-01
  4.670233E-01
  4.662653E-01
  4.686985E-01
  4.678433E-01
  4.698413E-01
  4.683801E-01
  4.697909E-01
  4.679094E-01
  4.691243E-01
  4.672294E-01
  4.685110E-01
  4.666676E-01
  4.679561E-01
  4.661260E-01
  4.675261E-01
  4.659700E-01
  4.677857E-01
  4.666700E-01
  4.687834E-01
  4.676835E-01
  4.694934E-01
  4.678672E-01
  4.691309E-01
  4.671693E-01
  4.684672E-01
  4.669193E-01
  4.688529E-01
  4.678941E-01
  4.701006E-01
  4.689467E-01
  4.705287E-01
  4.685413E-01
  4.693985E-01
  4.670816E-01
  4.681441E-01
  4.665007E-01
  4.684518E-01
  4.644430E-01
  4.671692E-01
  4.664393E-01
  4.688483E-01
  4.673576E-01
  4.689209E-01
  4.668408E-01
  4.682482E-01
  4.664062E-01
  4.682482E-01
  4.668104E-01
  4.688942E-01
  4.675501E-01
  4.696949E-01
  4.684920E-01
  4.708694E-01
  4.698679E-01
  4.722144E-01
  4.707814E-01
  4.722680E-01
  4.697035E-01
  4.700847E-01
  4.667679E-01
  4.669781E-01
  4.641136E-01
  4.652474E-01
  4.635003E-01
  4.656546E-01
  4.646316E-01
  4.671571E-01
  4.662224E-01
  4.686792E-01
  4.676188E-01
  4.699157E-01
  4.686095E-01
  4.705026E-01
  4.686124E-01
  4.698135E-01
  4.672852E-01
  4.680968E-01
  4.655742E-01
  4.668196E-01
  4.650564E-01
  4.671801E-01
  4.661694E-01
  4.687131E-01
  4.676807E-01
  4.697785E-01
  4.680152E-01
  4.693230E-01
  4.669621E-01
  4.680650E-01
  4.659683E-01
  4.677131E-01
  4.663908E-01
  4.687209E-01
  4.675191E-01
  4.693970E-01
  4.672932E-01
  4.681440E-01
  4.652944E-01
  4.660029E-01
  4.637129E-01
  4.655066E-01
  4.665172E-01
  4.685570E-01
  4.673424E-01
  4.690186E-01
  4.672368E-01
  4.683832E-01
  4.663415E-01
  4.676118E-01
  4.660176E-01
  4.678570E-01
  4.667200E-01
  4.687667E-01
  4.676128E-01
  4.695761E-01
  4.684470E-01
  4.706073E-01
  4.697403E-01
  4.719985E-01
  4.708457E-01
  4.723640E-01
  4.701619E-01
  4.706347E-01
  4.677395E-01
  4.681070E-01
  4.657250E-01
  4.670537E-01
  4.657902E-01
  4.680951E-01
  4.674492E-01
  4.699242E-01
  4.690379E-01
  4.709921E-01
  4.694794E-01
  4.708681E-01
  4.689631E-01
  4.701634E-01
  4.682281E-01
  4.694724E-01
  4.675873E-01
  4.688751E-01
  4.670691E-01
  4.685306E-01
  4.670134E-01
  4.688263E-01
  4.676071E-01
  4.695355E-01
  4.681739E-01
  4.697253E-01
  4.678768E-01
  4.690129E-01
  4.669868E-01
  4.682644E-01
  4.666573E-01
  4.684783E-01
  4.673316E-01
  4.693496E-01
  4.680545E-01
  4.696269E-01
  4.677468E-01
  4.688015E-01
  4.666516E-01
  4.677778E-01
  4.660174E-01
  4.677186E-01
  4.637914E-01
  4.659244E-01
  4.655261E-01
  4.678390E-01
  4.671769E-01
  4.689731E-01
  4.677736E-01
  4.691791E-01
  4.677840E-01
  4.691362E-01
  4.677464E-01
  4.691227E-01
  4.678089E-01
  4.693845E-01
  4.684276E-01
  4.704488E-01
  4.698470E-01
  4.719090E-01
  4.708755E-01
  4.720402E-01
  4.698462E-01
  4.699251E-01
  4.670662E-01
  4.671159E-01
  4.648610E-01
  4.659355E-01
  4.647977E-01
  4.667741E-01
  4.661512E-01
  4.682613E-01
  4.675303E-01
  4.694643E-01
  4.685967E-01
  4.704254E-01
  4.693846E-01
  4.708616E-01
  4.692562E-01
  4.700434E-01
  4.678126E-01
  4.682518E-01
  4.660923E-01
  4.670274E-01
  4.656502E-01
  4.674248E-01
  4.667063E-01
  4.687894E-01
  4.679729E-01
  4.696120E-01
  4.681553E-01
  4.691521E-01
  4.672397E-01
  4.681022E-01
  4.664167E-01
  4.677901E-01
  4.667155E-01
  4.685592E-01
  4.675998E-01
  4.691021E-01
  4.674111E-01
  4.680199E-01
  4.655891E-01
  4.658976E-01
  4.637490E-01
  4.648609E-01
  4.661788E-01
  4.675006E-01
  4.667687E-01
  4.681901E-01
  4.673520E-01
  4.685457E-01
  4.674843E-01
  4.685603E-01
  4.675097E-01
  4.686664E-01
  4.676781E-01
  4.688347E-01
  4.678282E-01
  4.690572E-01
  4.683034E-01
  4.699465E-01
  4.696085E-01
  4.714260E-01
  4.708202E-01
  4.718941E-01
  4.702517E-01
  4.703348E-01
  4.680996E-01
  4.682012E-01
  4.665839E-01
  4.676827E-01
  4.671154E-01
  4.690146E-01
  4.688175E-01
  4.706321E-01
  4.700005E-01
  4.712041E-01
  4.699619E-01
  4.706871E-01
  4.691597E-01
  4.697823E-01
  4.682757E-01
  4.689719E-01
  4.675483E-01
  4.683395E-01
  4.670597E-01
  4.680781E-01
  4.671019E-01
  4.684358E-01
  4.676850E-01
  4.690635E-01
  4.681459E-01
  4.691994E-01
  4.679213E-01
  4.687222E-01
  4.674056E-01
  4.684065E-01
  4.674583E-01
  4.688578E-01
  4.681852E-01
  4.696279E-01
  4.687396E-01
  4.697679E-01
  4.683854E-01
  4.689722E-01
  4.673081E-01
  4.678339E-01
  4.663377E-01
  4.672187E-01
  4.637321E-01
  4.652264E-01
  4.652595E-01
  4.672651E-01
  4.673808E-01
  4.691041E-01
  4.687103E-01
  4.698453E-01
  4.688974E-01
  4.695803E-01
  4.683249E-01
  4.688872E-01
  4.677434E-01
  4.686705E-01
  4.680980E-01
  4.696603E-01
  4.695674E-01
  4.712291E-01
  4.707234E-01
  4.715001E-01
  4.698641E-01
  4.696108E-01
  4.673812E-01
  4.671622E-01
  4.655628E-01
  4.663305E-01
  4.657328E-01
  4.672197E-01
  4.669216E-01
  4.683453E-01
  4.678096E-01
  4.690213E-01
  4.684003E-01
  4.696114E-01
  4.689316E-01
  4.698837E-01
  4.687033E-01
  4.690150E-01
  4.672630E-01
  4.672918E-01
  4.656750E-01
  4.662364E-01
  4.653890E-01
  4.667251E-01
  4.664441E-01
  4.680126E-01
  4.676179E-01
  4.688118E-01
  4.679229E-01
  4.686557E-01
  4.674675E-01
  4.681413E-01
  4.671444E-01
  4.681915E-01
  4.676115E-01
  4.689433E-01
  4.683585E-01
  4.693204E-01
  4.680501E-01
  4.681867E-01
  4.662041E-01
  4.659855E-01
  4.641519E-01
  4.645805E-01
  4.664429E-01
  4.672953E-01
  4.668337E-01
  4.679127E-01
  4.675249E-01
  4.685225E-01
  4.679455E-01
  4.687166E-01
  4.679332E-01
  4.685425E-01
  4.676467E-01
  4.682091E-01
  4.673790E-01
  4.681804E-01
  4.677823E-01
  4.691332E-01
  4.692211E-01
  4.707657E-01
  4.705864E-01
  4.713965E-01
  4.702062E-01
  4.700561E-01
  4.682877E-01
  4.681364E-01
  4.669233E-01
  4.676669E-01
  4.673747E-01
  4.687830E-01
  4.687436E-01
  4.699925E-01
  4.695024E-01
  4.701824E-01
  4.691645E-01
  4.694617E-01
  4.682417E-01
  4.684972E-01
  4.673453E-01
  4.677268E-01
  4.667276E-01
  4.672846E-01
  4.664948E-01
  4.672960E-01
  4.667566E-01
  4.677554E-01
  4.672948E-01
  4.682171E-01
  4.675457E-01
  4.682041E-01
  4.673287E-01
  4.679421E-01
  4.672214E-01
  4.681493E-01
  4.677938E-01
  4.689993E-01
  4.687208E-01
  4.697596E-01
  4.691120E-01
  4.696845E-01
  4.685960E-01
  4.688471E-01
  4.675993E-01
  4.678506E-01
  4.667382E-01
  4.672330E-01
  4.644123E-01
  4.655665E-01
  4.657169E-01
  4.672792E-01
  4.675134E-01
  4.688541E-01
  4.686348E-01
  4.693935E-01
  4.685750E-01
  4.688241E-01
  4.676820E-01
  4.678697E-01
  4.669674E-01
  4.676742E-01
  4.674690E-01
  4.688732E-01
  4.691473E-01
  4.706188E-01
  4.704540E-01
  4.710403E-01
  4.697617E-01
  4.693212E-01
  4.674075E-01
  4.669030E-01
  4.654792E-01
  4.658135E-01
  4.652751E-01
  4.662730E-01
  4.660496E-01
  4.670614E-01
  4.667155E-01
  4.676373E-01
  4.673049E-01
  4.682830E-01
  4.679069E-01
  4.686187E-01
  4.677432E-01
  4.678510E-01
  4.664814E-01
  4.664032E-01
  4.652415E-01
  4.656983E-01
  4.652131E-01
  4.662669E-01
  4.661329E-01
  4.672344E-01
  4.668972E-01
  4.676662E-01
  4.670014E-01
  4.675514E-01
  4.668288E-01
  4.674830E-01
  4.669842E-01
  4.679053E-01
  4.676182E-01
  4.685956E-01
  4.681370E-01
  4.687034E-01
  4.676628E-01
  4.676175E-01
  4.661111E-01
  4.658984E-01
  4.645989E-01
  4.649386E-01
  4.676098E-01
  4.681190E-01
  4.677178E-01
  4.681502E-01
  4.676742E-01
  4.680214E-01
  4.674451E-01
  4.676886E-01
  4.670265E-01
  4.672237E-01
  4.665754E-01
  4.668721E-01
  4.664423E-01
  4.671010E-01
  4.671602E-01
  4.683479E-01
  4.688184E-01
  4.701185E-01
  4.702775E-01
  4.708485E-01
  4.700252E-01
  4.696384E-01
  4.681696E-01
  4.676351E-01
  4.665290E-01
  4.667124E-01
  4.664297E-01
  4.672974E-01
  4.674022E-01
  4.683215E-01
  4.682018E-01
  4.687324E-01
  4.681783E-01
  4.683235E-01
  4.674942E-01
  4.675041E-01
  4.666827E-01
  4.668280E-01
  4.662398E-01
  4.666753E-01
  4.663838E-01
  4.670635E-01
  4.669032E-01
  4.675550E-01
  4.671985E-01
  4.675314E-01
  4.668329E-01
  4.669281E-01
  4.662056E-01
  4.665348E-01
  4.662564E-01
  4.671076E-01
  4.672555E-01
  4.682865E-01
  4.682996E-01
  4.689256E-01
  4.684058E-01
  4.685538E-01
  4.677595E-01
  4.678931E-01
  4.672949E-01
  4.677156E-01
  4.673699E-01
  4.679322E-01
  4.660426E-01
  4.666976E-01
  4.669727E-01
  4.676106E-01
  4.677315E-01
  4.681117E-01
  4.679033E-01
  4.679178E-01
  4.673576E-01
  4.671055E-01
  4.664461E-01
  4.663286E-01
  4.660569E-01
  4.665309E-01
  4.669354E-01
  4.680040E-01
  4.687482E-01
  4.697704E-01
  4.700369E-01
  4.702159E-01
  4.694487E-01
  4.686488E-01
  4.672029E-01
  4.661895E-01
  4.650197E-01
  4.646478E-01
  4.642662E-01
  4.646097E-01
  4.647385E-01
  4.653778E-01
  4.656663E-01
  4.664157E-01
  4.667859E-01
  4.675259E-01
  4.676978E-01
  4.680013E-01
  4.675605E-01
  4.672477E-01
  4.663992E-01
  4.660364E-01
  4.655055E-01
  4.656891E-01
  4.657090E-01
  4.662405E-01
  4.663022E-01
  4.666039E-01
  4.663063E-01
  4.662946E-01
  4.658618E-01
  4.659376E-01
  4.657697E-01
  4.661865E-01
  4.663233E-01
  4.669193E-01
  4.670611E-01
  4.674826E-01
  4.673050E-01
  4.673313E-01
  4.667765E-01
  4.665431E-01
  4.659228E-01
  4.658441E-01
  4.655612E-01
  4.659127E-01
  4.695502E-01
  4.693091E-01
  4.691775E-01
  4.684176E-01
  4.679590E-01
  4.670792E-01
  4.666710E-01
  4.659556E-01
  4.657757E-01
  4.653199E-01
  4.654181E-01
  4.652619E-01
  4.656926E-01
  4.659078E-01
  4.667309E-01
  4.673031E-01
  4.683538E-01
  4.689182E-01
  4.696527E-01
  4.695989E-01
  4.695208E-01
  4.686478E-01
  4.679534E-01
  4.668251E-01
  4.662877E-01
  4.656617E-01
  4.658186E-01
  4.658974E-01
  4.666141E-01
  4.670102E-01
  4.677685E-01
  4.679516E-01
  4.683064E-01
  4.679916E-01
  4.678689E-01
  4.672100E-01
  4.669614E-01
  4.664255E-01
  4.665127E-01
  4.664285E-01
  4.669485E-01
  4.671408E-01
  4.676785E-01
  4.675964E-01
  4.676245E-01
  4.669393E-01
  4.664634E-01
  4.655571E-01
  4.652505E-01
  4.648878E-01
  4.653531E-01
  4.657575E-01
  4.667447E-01
  4.672653E-01
  4.679441E-01
  4.678656E-01
  4.678932E-01
  4.673636E-01
  4.673074E-01
  4.670777E-01
  4.675668E-01
  4.678964E-01
  4.687315E-01
  4.690602E-01
  4.680273E-01
  4.677005E-01
  4.683875E-01
  4.676882E-01
  4.680248E-01
  4.670601E-01
  4.672267E-01
  4.661655E-01
  4.662926E-01
  4.652636E-01
  4.655362E-01
  4.648045E-01
  4.655251E-01
  4.653318E-01
  4.665731E-01
  4.667608E-01
  4.681442E-01
  4.681851E-01
  4.691403E-01
  4.685334E-01
  4.687295E-01
  4.673937E-01
  4.670409E-01
  4.654561E-01
  4.652042E-01
  4.640290E-01
  4.643778E-01
  4.638503E-01
  4.647807E-01
  4.647168E-01
  4.659902E-01
  4.661513E-01
  4.675002E-01
  4.675243E-01
  4.684763E-01
  4.678729E-01
  4.681046E-01
  4.669017E-01
  4.668563E-01
  4.657901E-01
  4.662212E-01
  4.657554E-01
  4.666467E-01
  4.663066E-01
  4.669496E-01
  4.661142E-01
  4.662443E-01
  4.651053E-01
  4.652710E-01
  4.644953E-01
  4.652201E-01
  4.650130E-01
  4.661496E-01
  4.661037E-01
  4.671431E-01
  4.668027E-01
  4.674510E-01
  4.667354E-01
  4.671259E-01
  4.663401E-01
  4.668668E-01
  4.663775E-01
  4.672570E-01
  4.670473E-01
  4.712641E-01
  4.699591E-01
  4.702891E-01
  4.682721E-01
  4.681833E-01
  4.660788E-01
  4.661860E-01
  4.644667E-01
  4.650490E-01
  4.638167E-01
  4.648502E-01
  4.640121E-01
  4.653777E-01
  4.648112E-01
  4.663876E-01
  4.659623E-01
  4.675898E-01
  4.670968E-01
  4.685140E-01
  4.676683E-01
  4.686306E-01
  4.673088E-01
  4.678787E-01
  4.663456E-01
  4.669427E-01
  4.656742E-01
  4.667148E-01
  4.659693E-01
  4.674958E-01
  4.670876E-01
  4.687157E-01
  4.681311E-01
  4.693247E-01
  4.681387E-01
  4.687147E-01
  4.670675E-01
  4.674799E-01
  4.660254E-01
  4.669363E-01
  4.661349E-01
  4.676454E-01
  4.671870E-01
  4.686494E-01
  4.677337E-01
  4.684428E-01
  4.666983E-01
  4.667677E-01
  4.647958E-01
  4.651526E-01
  4.639227E-01
  4.652675E-01
  4.649828E-01
  4.669599E-01
  4.668356E-01
  4.685061E-01
  4.677712E-01
  4.687854E-01
  4.676061E-01
  4.685494E-01
  4.676785E-01
  4.691596E-01
  4.688110E-01
  4.705562E-01
  4.700661E-01
  4.691898E-01
  4.679601E-01
  4.690030E-01
  4.674020E-01
  4.681268E-01
  4.663340E-01
  4.670011E-01
  4.652467E-01
  4.660070E-01
  4.643912E-01
  4.653595E-01
  4.640476E-01
  4.654073E-01
  4.645148E-01
  4.662304E-01
  4.655465E-01
  4.672826E-01
  4.664432E-01
  4.678954E-01
  4.667005E-01
  4.677770E-01
  4.662338E-01
  4.670398E-01
  4.653558E-01
  4.661864E-01
  4.646913E-01
  4.658327E-01
  4.647052E-01
  4.662128E-01
  4.654157E-01
  4.671988E-01
  4.665905E-01
  4.684144E-01
  4.676258E-01
  4.690142E-01
  4.675935E-01
  4.683185E-01
  4.664264E-01
  4.670557E-01
  4.654922E-01
  4.667471E-01
  4.658458E-01
  4.675175E-01
  4.666098E-01
  4.678572E-01
  4.662897E-01
  4.669169E-01
  4.650161E-01
  4.657181E-01
  4.642615E-01
  4.656166E-01
  4.648203E-01
  4.666793E-01
  4.661472E-01
  4.680261E-01
  4.673150E-01
  4.688824E-01
  4.678018E-01
  4.690227E-01
  4.676988E-01
  4.688366E-01
  4.675941E-01
  4.689129E-01
  4.678358E-01
  4.717008E-01
  4.699107E-01
  4.703242E-01
  4.680049E-01
  4.681501E-01
  4.658539E-01
  4.662661E-01
  4.643868E-01
  4.652666E-01
  4.638309E-01
  4.650902E-01
  4.639579E-01
  4.654470E-01
  4.644779E-01
  4.660713E-01
  4.651556E-01
  4.667599E-01
  4.658187E-01
  4.673634E-01
  4.663292E-01
  4.677526E-01
  4.665851E-01
  4.678915E-01
  4.666565E-01
  4.679707E-01
  4.668275E-01
  4.683035E-01
  4.673557E-01
  4.690061E-01
  4.681450E-01
  4.697290E-01
  4.686063E-01
  4.697413E-01
  4.680577E-01
  4.686585E-01
  4.666326E-01
  4.672177E-01
  4.655516E-01
  4.668033E-01
  4.659359E-01
  4.678865E-01
  4.673994E-01
  4.692781E-01
  4.682658E-01
  4.693058E-01
  4.673859E-01
  4.677246E-01
  4.655276E-01
  4.661021E-01
  4.645850E-01
  4.660850E-01
  4.654815E-01
  4.676523E-01
  4.673418E-01
  4.694190E-01
  4.687338E-01
  4.703289E-01
  4.692330E-01
  4.706131E-01
  4.695278E-01
  4.710730E-01
  4.701644E-01
  4.717407E-01
  4.706105E-01
  4.688683E-01
  4.677407E-01
  4.684787E-01
  4.672997E-01
  4.679668E-01
  4.667423E-01
  4.673897E-01
  4.661399E-01
  4.667343E-01
  4.654251E-01
  4.660157E-01
  4.648225E-01
  4.656676E-01
  4.648181E-01
  4.659986E-01
  4.653786E-01
  4.666315E-01
  4.659391E-01
  4.670311E-01
  4.661544E-01
  4.670867E-01
  4.660993E-01
  4.669795E-01
  4.660015E-01
  4.669454E-01
  4.660622E-01
  4.670970E-01
  4.662721E-01
  4.673313E-01
  4.665267E-01
  4.676379E-01
  4.669189E-01
  4.680945E-01
  4.673258E-01
  4.682656E-01
  4.670893E-01
  4.675751E-01
  4.660938E-01
  4.665953E-01
  4.655008E-01
  4.666452E-01
  4.662090E-01
  4.677659E-01
  4.673339E-01
  4.684954E-01
  4.674368E-01
  4.679860E-01
  4.665421E-01
  4.670319E-01