# vtk DataFile Version 2.0
title
ASCII
DATASET STRUCTURED_GRID
DIMENSIONS   64   64    1
POINTS   4096  float
  0.000000E+00  0.000000E+00  0.000000E+00
  0.000000E+00  3.906250E-01  0.000000E+00
  0.000000E+00  7.812500E-01  0.000000E+00
  0.000000E+00  1.171875E+00  0.000000E+00
  0.000000E+00  1.562500E+00  0.000000E+00
  0.000000E+00  1.953125E+00  0.000000E+00
  0.000000E+00  2.343750E+00  0.000000E+00
  0.000000E+00  2.734375E+00  0.000000E+00
  0.000000E+00  3.125000E+00  0.000000E+00
  0.000000E+00  3.515625E+00  0.000000E+00
  0.000000E+00  3.906250E+00  0.000000E+00
  0.000000E+00  4.296875E+00  0.000000E+00
  0.000000E+00  4.687500E+00  0.000000E+00
  0.000000E+00  5.078125E+00  0.000000E+00
  0.000000E+00  5.468750E+00  0.000000E+00
  0.000000E+00  5.859375E+00  0.000000E+00
  0.000000E+00  6.250000E+00  0.000000E+00
  0.000000E+00  6.640625E+00  0.000000E+00
  0.000000E+00  7.031250E+00  0.000000E+00
  0.000000E+00  7.421875E+00  0.000000E+00
  0.000000E+00  7.812500E+00  0.000000E+00
  0.000000E+00  8.203125E+00  0.000000E+00
  0.000000E+00  8.593750E+00  0.000000E+00
  0.000000E+00  8.984375E+00  0.000000E+00
  0.000000E+00  9.375000E+00  0.000000E+00
  0.000000E+00  9.765625E+00  0.000000E+00
  0.000000E+00  1.015625E+01  0.000000E+00
  0.000000E+00  1.054688E+01  0.000000E+00
  0.000000E+00  1.093750E+01  0.000000E+00
  0.000000E+00  1.132812E+01  0.000000E+00
  0.000000E+00  1.171875E+01  0.000000E+00
  0.000000E+00  1.210938E+01  0.000000E+00
  0.000000E+00  1.250000E+01  0.000000E+00
  0.000000E+00  1.289062E+01  0.000000E+00
  0.000000E+00  1.328125E+01  0.000000E+00
  0.000000E+00  1.367188E+01  0.000000E+00
  0.000000E+00  1.406250E+01  0.000000E+00
  0.000000E+00  1.445312E+01  0.000000E+00
  0.000000E+00  1.484375E+01  0.000000E+00
  0.000000E+00  1.523438E+01  0.000000E+00
  0.000000E+00  1.562500E+01  0.000000E+00
  0.000000E+00  1.601562E+01  0.000000E+00
  0.000000E+00  1.640625E+01  0.000000E+00
  0.000000E+00  1.679688E+01  0.000000E+00
  0.000000E+00  1.718750E+01  0.000000E+00
  0.000000E+00  1.757812E+01  0.000000E+00
  0.000000E+00  1.796875E+01  0.000000E+00
  0.000000E+00  1.835938E+01  0.000000E+00
  0.000000E+00  1.875000E+01  0.000000E+00
  0.000000E+00  1.914062E+01  0.000000E+00
  0.000000E+00  1.953125E+01  0.000000E+00
  0.000000E+00  1.992188E+01  0.000000E+00
  0.000000E+00  2.031250E+01  0.000000E+00
  0.000000E+00  2.070312E+01  0.000000E+00
  0.000000E+00  2.109375E+01  0.000000E+00
  0.000000E+00  2.148438E+01  0.000000E+00
  0.000000E+00  2.187500E+01  0.000000E+00
  0.000000E+00  2.226562E+01  0.000000E+00
  0.000000E+00  2.265625E+01  0.000000E+00
  0.000000E+00  2.304688E+01  0.000000E+00
  0.000000E+00  2.343750E+01  0.000000E+00
  0.000000E+00  2.382812E+01  0.000000E+00
  0.000000E+00  2.421875E+01  0.000000E+00
  0.000000E+00  2.460938E+01  0.000000E+00
  3.906250E-01  0.000000E+00  0.000000E+00
  3.906250E-01  3.906250E-01  0.000000E+00
  3.906250E-01  7.812500E-01  0.000000E+00
  3.906250E-01  1.171875E+00  0.000000E+00
  3.906250E-01  1.562500E+00  0.000000E+00
  3.906250E-01  1.953125E+00  0.000000E+00
  3.906250E-01  2.343750E+00  0.000000E+00
  3.906250E-01  2.734375E+00  0.000000E+00
  3.906250E-01  3.125000E+00  0.000000E+00
  3.906250E-01  3.515625E+00  0.000000E+00
  3.906250E-01  3.906250E+00  0.000000E+00
  3.906250E-01  4.296875E+00  0.000000E+00
  3.906250E-01  4.687500E+00  0.000000E+00
  3.906250E-01  5.078125E+00  0.000000E+00
  3.906250E-01  5.468750E+00  0.000000E+00
  3.906250E-01  5.859375E+00  0.000000E+00
  3.906250E-01  6.250000E+00  0.000000E+00
  3.906250E-01  6.640625E+00  0.000000E+00
  3.906250E-01  7.031250E+00  0.000000E+00
  3.906250E-01  7.421875E+00  0.000000E+00
  3.906250E-01  7.812500E+00  0.000000E+00
  3.906250E-01  8.203125E+00  0.000000E+00
  3.906250E-01  8.593750E+00  0.000000E+00
  3.906250E-01  8.984375E+00  0.000000E+00
  3.906250E-01  9.375000E+00  0.000000E+00
  3.906250E-01  9.765625E+00  0.000000E+00
  3.906250E-01  1.015625E+01  0.000000E+00
  3.906250E-01  1.054688E+01  0.000000E+00
  3.906250E-01  1.093750E+01  0.000000E+00
  3.906250E-01  1.132812E+01  0.000000E+00
  3.906250E-01  1.171875E+01  0.000000E+00
  3.906250E-01  1.210938E+01  0.000000E+00
  3.906250E-01  1.250000E+01  0.000000E+00
  3.906250E-01  1.289062E+01  0.000000E+00
  3.906250E-01  1.328125E+01  0.000000E+00
  3.906250E-01  1.367188E+01  0.000000E+00
  3.906250E-01  1.406250E+01  0.000000E+00
  3.906250E-01  1.445312E+01  0.000000E+00
  3.906250E-01  1.484375E+01  0.000000E+00
  3.906250E-01  1.523438E+01  0.000000E+00
  3.906250E-01  1.562500E+01  0.000000E+00
  3.906250E-01  1.601562E+01  0.000000E+00
  3.906250E-01  1.640625E+01  0.000000E+00
  3.906250E-01  1.679688E+01  0.000000E+00
  3.906250E-01  1.718750E+01  0.000000E+00
  3.906250E-01  1.757812E+01  0.000000E+00
  3.906250E-01  1.796875E+01  0.000000E+00
  3.906250E-01  1.835938E+01  0.000000E+00
  3.906250E-01  1.875000E+01  0.000000E+00
  3.906250E-01  1.914062E+01  0.000000E+00
  3.906250E-01  1.953125E+01  0.000000E+00
  3.906250E-01  1.992188E+01  0.000000E+00
  3.906250E-01  2.031250E+01  0.000000E+00
  3.906250E-01  2.070312E+01  0.000000E+00
  3.906250E-01  2.109375E+01  0.000000E+00
  3.906250E-01  2.148438E+01  0.000000E+00
  3.906250E-01  2.187500E+01  0.000000E+00
  3.906250E-01  2.226562E+01  0.000000E+00
  3.906250E-01  2.265625E+01  0.000000E+00
  3.906250E-01  2.304688E+01  0.000000E+00
  3.906250E-01  2.343750E+01  0.000000E+00
  3.906250E-01  2.382812E+01  0.000000E+00
  3.906250E-01  2.421875E+01  0.000000E+00
  3.906250E-01  2.460938E+01  0.000000E+00
  7.812500E-01  0.000000E+00  0.000000E+00
  7.812500E-01  3.906250E-01  0.000000E+00
  7.812500E-01  7.812500E-01  0.000000E+00
  7.812500E-01  1.171875E+00  0.000000E+00
  7.812500E-01  1.562500E+00  0.000000E+00
  7.812500E-01  1.953125E+00  0.000000E+00
  7.812500E-01  2.343750E+00  0.000000E+00
  7.812500E-01  2.734375E+00  0.000000E+00
  7.812500E-01  3.125000E+00  0.000000E+00
  7.812500E-01  3.515625E+00  0.000000E+00
  7.812500E-01  3.906250E+00  0.000000E+00
  7.812500E-01  4.296875E+00  0.000000E+00
  7.812500E-01  4.687500E+00  0.000000E+00
  7.812500E-01  5.078125E+00  0.000000E+00
  7.812500E-01  5.468750E+00  0.000000E+00
  7.812500E-01  5.859375E+00  0.000000E+00
  7.812500E-01  6.250000E+00  0.000000E+00
  7.812500E-01  6.640625E+00  0.000000E+00
  7.812500E-01  7.031250E+00  0.000000E+00
  7.812500E-01  7.421875E+00  0.000000E+00
  7.812500E-01  7.812500E+00  0.000000E+00
  7.812500E-01  8.203125E+00  0.000000E+00
  7.812500E-01  8.593750E+00  0.000000E+00
  7.812500E-01  8.984375E+00  0.000000E+00
  7.812500E-01  9.375000E+00  0.000000E+00
  7.812500E-01  9.765625E+00  0.000000E+00
  7.812500E-01  1.015625E+01  0.000000E+00
  7.812500E-01  1.054688E+01  0.000000E+00
  7.812500E-01  1.093750E+01  0.000000E+00
  7.812500E-01  1.132812E+01  0.000000E+00
  7.812500E-01  1.171875E+01  0.000000E+00
  7.812500E-01  1.210938E+01  0.000000E+00
  7.812500E-01  1.250000E+01  0.000000E+00
  7.812500E-01  1.289062E+01  0.000000E+00
  7.812500E-01  1.328125E+01  0.000000E+00
  7.812500E-01  1.367188E+01  0.000000E+00
  7.812500E-01  1.406250E+01  0.000000E+00
  7.812500E-01  1.445312E+01  0.000000E+00
  7.812500E-01  1.484375E+01  0.000000E+00
  7.812500E-01  1.523438E+01  0.000000E+00
  7.812500E-01  1.562500E+01  0.000000E+00
  7.812500E-01  1.601562E+01  0.000000E+00
  7.812500E-01  1.640625E+01  0.000000E+00
  7.812500E-01  1.679688E+01  0.000000E+00
  7.812500E-01  1.718750E+01  0.000000E+00
  7.812500E-01  1.757812E+01  0.000000E+00
  7.812500E-01  1.796875E+01  0.000000E+00
  7.812500E-01  1.835938E+01  0.000000E+00
  7.812500E-01  1.875000E+01  0.000000E+00
  7.812500E-01  1.914062E+01  0.000000E+00
  7.812500E-01  1.953125E+01  0.000000E+00
  7.812500E-01  1.992188E+01  0.000000E+00
  7.812500E-01  2.031250E+01  0.000000E+00
  7.812500E-01  2.070312E+01  0.000000E+00
  7.812500E-01  2.109375E+01  0.000000E+00
  7.812500E-01  2.148438E+01  0.000000E+00
  7.812500E-01  2.187500E+01  0.000000E+00
  7.812500E-01  2.226562E+01  0.000000E+00
  7.812500E-01  2.265625E+01  0.000000E+00
  7.812500E-01  2.304688E+01  0.000000E+00
  7.812500E-01  2.343750E+01  0.000000E+00
  7.812500E-01  2.382812E+01  0.000000E+00
  7.812500E-01  2.421875E+01  0.000000E+00
  7.812500E-01  2.460938E+01  0.000000E+00
  1.171875E+00  0.000000E+00  0.000000E+00
  1.171875E+00  3.906250E-01  0.000000E+00
  1.171875E+00  7.812500E-01  0.000000E+00
  1.171875E+00  1.171875E+00  0.000000E+00
  1.171875E+00  1.562500E+00  0.000000E+00
  1.171875E+00  1.953125E+00  0.000000E+00
  1.171875E+00  2.343750E+00  0.000000E+00
  1.171875E+00  2.734375E+00  0.000000E+00
  1.171875E+00  3.125000E+00  0.000000E+00
  1.171875E+00  3.515625E+00  0.000000E+00
  1.171875E+00  3.906250E+00  0.000000E+00
  1.171875E+00  4.296875E+00  0.000000E+00
  1.171875E+00  4.687500E+00  0.000000E+00
  1.171875E+00  5.078125E+00  0.000000E+00
  1.171875E+00  5.468750E+00  0.000000E+00
  1.171875E+00  5.859375E+00  0.000000E+00
  1.171875E+00  6.250000E+00  0.000000E+00
  1.171875E+00  6.640625E+00  0.000000E+00
  1.171875E+00  7.031250E+00  0.000000E+00
  1.171875E+00  7.421875E+00  0.000000E+00
  1.171875E+00  7.812500E+00  0.000000E+00
  1.171875E+00  8.203125E+00  0.000000E+00
  1.171875E+00  8.593750E+00  0.000000E+00
  1.171875E+00  8.984375E+00  0.000000E+00
  1.171875E+00  9.375000E+00  0.000000E+00
  1.171875E+00  9.765625E+00  0.000000E+00
  1.171875E+00  1.015625E+01  0.000000E+00
  1.171875E+00  1.054688E+01  0.000000E+00
  1.171875E+00  1.093750E+01  0.000000E+00
  1.171875E+00  1.132812E+01  0.000000E+00
  1.171875E+00  1.171875E+01  0.000000E+00
  1.171875E+00  1.210938E+01  0.000000E+00
  1.171875E+00  1.250000E+01  0.000000E+00
  1.171875E+00  1.289062E+01  0.000000E+00
  1.171875E+00  1.328125E+01  0.000000E+00
  1.171875E+00  1.367188E+01  0.000000E+00
  1.171875E+00  1.406250E+01  0.000000E+00
  1.171875E+00  1.445312E+01  0.000000E+00
[...]
POINT_DATA   4096
SCALARS CON  float  1
LOOKUP_TABLE default
  4.695425E-01
  4.689294E-01
  4.719316E-01
  4.702749E-01
  4.718931E-01
  4.692022E-01
  4.705311E-01
  4.682212E-01
  4.701717E-01
  4.682563E-01
  4.701724E-01
  4.679537E-01
  4.696642E-01
  4.676324E-01
  4.699381E-01
  4.686365E-01
  4.714178E-01
  4.700563E-01
  4.722072E-01
  4.698413E-01
  4.709181E-01
  4.676876E-01
  4.682947E-01
  4.650780E-01
  4.661851E-01
  4.638559E-01
  4.660150E-01
  4.645880E-01
  4.672161E-01
  4.657296E-01
  4.679399E-01
  4.660244E-01
  4.681001E-01
  4.664060E-01
  4.688376E-01
  4.672875E-01
  4.694198E-01
  4.671610E-01
  4.684411E-01
  4.655132E-01
  4.665216E-01
  4.637618E-01
  4.653086E-01
  4.633689E-01
  4.659405E-01
  4.651091E-01
  4.686331E-01
  4.682530E-01
  4.714268E-01
  4.698630E-01
  4.713966E-01
  4.684346E-01
  4.695052E-01
  4.673025E-01
  4.700120E-01
  4.694814E-01
  4.729793E-01
  4.718607E-01
  4.735949E-01
  4.703258E-01
  4.704943E-01
  4.669242E-01
  4.681419E-01
  4.664557E-01
  4.714379E-01
  4.712685E-01
  4.731570E-01
  4.716570E-01
  4.719111E-01
  4.691795E-01
  4.691238E-01
  4.670745E-01
  4.682892E-01
  4.674590E-01
  4.693251E-01
  4.684459E-01
  4.698319E-01
  4.685009E-01
  4.698187E-01
  4.688520E-01
  4.707039E-01
  4.700430E-01
  4.716806E-01
  4.702677E-01
  4.708738E-01
  4.685344E-01
  4.686351E-01
  4.663340E-01
  4.669457E-01
  4.654498E-01
  4.669614E-01
  4.662763E-01
  4.683404E-01
  4.678079E-01
  4.695643E-01
  4.683457E-01
  4.692695E-01
  4.673744E-01
  4.680119E-01
  4.662671E-01
  4.673259E-01
  4.659857E-01
  4.671803E-01
  4.656292E-01
  4.664047E-01
  4.645074E-01
  4.652919E-01
  4.639060E-01
  4.656451E-01
  4.654016E-01
  4.680951E-01
  4.682470E-01
  4.705684E-01
  4.696777E-01
  4.707242E-01
  4.689532E-01
  4.700125E-01
  4.691981E-01
  4.716631E-01
  4.718976E-01
  4.743877E-01
  4.734835E-01
  4.741362E-01
  4.715015E-01
  4.712542E-01
  4.688660E-01
  4.698331E-01
  4.690828E-01
  4.677293E-01
  4.693286E-01
  4.711546E-01
  4.714035E-01
  4.712416E-01
  4.698026E-01
  4.689361E-01
  4.678963E-01
  4.681062E-01
  4.681524E-01
  4.689450E-01
  4.689591E-01
  4.693723E-01
  4.690698E-01
  4.695047E-01
  4.695517E-01
  4.704068E-01
  4.706162E-01
  4.711656E-01
  4.706101E-01
  4.701408E-01
  4.686106E-01
  4.674864E-01
  4.657963E-01
  4.650468E-01
  4.641650E-01
  4.644351E-01
  4.644984E-01
  4.653899E-01
  4.656468E-01
  4.663936E-01
  4.663916E-01
  4.669816E-01
  4.669929E-01
  4.676479E-01
  4.675621E-01
  4.678038E-01
  4.670074E-01
  4.664341E-01
  4.649885E-01
  4.641594E-01
  4.629632E-01
  4.628758E-01
  4.628016E-01
  4.640260E-01
  4.651909E-01
  4.672674E-01
  4.686040E-01
  4.700302E-01
  4.700397E-01
  4.699308E-01
  4.688494E-01
  4.686325E-01
  4.685375E-01
  4.699503E-01
  4.712795E-01
  4.730752E-01
  4.733631E-01
  4.729898E-01
  4.708410E-01
  4.687927E-01
  4.664592E-01
  4.658178E-01
  4.659130E-01
  4.691756E-01
  4.712127E-01
  4.714874E-01
  4.719769E-01
  4.702152E-01
  4.690311E-01
  4.666805E-01
  4.662222E-01
  4.655322E-01
  4.668876E-01
  4.673981E-01
  4.689736E-01
  4.688947E-01
  4.696177E-01
  4.689988E-01
  4.697731E-01
  4.696514E-01
  4.709257E-01
  4.708530E-01
  4.715334E-01
  4.703927E-01
  4.699434E-01
  4.680288E-01
  4.673849E-01
  4.658331E-01
  4.659290E-01
  4.652814E-01
  4.662695E-01
  4.663521E-01
  4.677574E-01
  4.678177E-01
  4.687395E-01
  4.680085E-01
  4.681355E-01
  4.669244E-01
  4.670419E-01
  4.661876E-01
  4.667249E-01
  4.660424E-01
  4.663867E-01
  4.653020E-01
  4.653657E-01
  4.644217E-01
  4.651337E-01
  4.651675E-01
  4.668338E-01
  4.674324E-01
  4.690451E-01
  4.689731E-01
  4.695517E-01
  4.685241E-01
  4.686946E-01
  4.680722E-01
  4.693352E-01
  4.699697E-01
  4.719670E-01
  4.723267E-01
  4.730329E-01
  4.715762E-01
  4.706825E-01
  4.684816E-01
  4.679751E-01
  4.671298E-01
  4.684348E-01
  4.655154E-01
  4.688319E-01
  4.689390E-01
  4.709114E-01
  4.689757E-01
  4.691399E-01
  4.663896E-01
  4.669616E-01
  4.654774E-01
  4.674680E-01
  4.669103E-01
  4.690699E-01
  4.681078E-01
  4.697389E-01
  4.685377E-01
  4.703588E-01
  4.695904E-01
  4.717110E-01
  4.707692E-01
  4.721258E-01
  4.699884E-01
  4.700730E-01
  4.669804E-01
  4.667068E-01
  4.639339E-01
  4.645314E-01
  4.629084E-01
  4.646166E-01
  4.638105E-01
  4.659318E-01
  4.651891E-01
  4.671878E-01
  4.663046E-01
  4.682191E-01
  4.672527E-01
  4.689497E-01
  4.675207E-01
  4.685183E-01
  4.663091E-01
  4.666972E-01
  4.642917E-01
  4.650253E-01
  4.634634E-01
  4.653319E-01
  4.648927E-01
  4.675646E-01
  4.673837E-01
  4.696845E-01
  4.685914E-01
  4.697016E-01
  4.675346E-01
  4.681039E-01
  4.661981E-01
  4.677905E-01
  4.672675E-01
  4.699656E-01
  4.696780E-01
  4.714897E-01
  4.694411E-01
  4.692902E-01
  4.658989E-01
  4.656391E-01
  4.635000E-01
  4.654124E-01
  4.674034E-01
  4.703054E-01
  4.691948E-01
  4.708638E-01
  4.680631E-01
  4.682742E-01
  4.649131E-01
  4.657500E-01
  4.639361E-01
  4.665482E-01
  4.659827E-01
  4.688952E-01
  4.677905E-01
  4.698534E-01
  4.681998E-01
  4.703429E-01
  4.692648E-01
  4.719849E-01
  4.709462E-01
  4.729154E-01
  4.705171E-01
  4.710221E-01
  4.675994E-01
  4.678360E-01
  4.648899E-01
  4.661005E-01
  4.643164E-01
  4.666300E-01
  4.657207E-01
  4.685465E-01
  4.676751E-01
  4.700376E-01
  4.683403E-01
  4.698190E-01
  4.675255E-01
  4.688896E-01
  4.668839E-01
  4.686393E-01
  4.668152E-01
  4.684329E-01
  4.663173E-01
  4.678014E-01
  4.659348E-01
  4.680212E-01
  4.668392E-01
  4.693461E-01
  4.680960E-01
  4.700478E-01
  4.679625E-01
  4.691152E-01
  4.665795E-01
  4.678367E-01
  4.659715E-01
  4.682376E-01
  4.673079E-01
  4.700100E-01
  4.687905E-01
  4.705776E-01
  4.681996E-01
  4.690567E-01
  4.663299E-01
  4.675361E-01
  4.657348E-01
  4.681416E-01
  4.642905E-01
  4.675347E-01
  4.669295E-01
  4.694554E-01
  4.675002E-01
  4.686896E-01
  4.660116E-01
  4.673469E-01
  4.654886E-01
  4.678178E-01
  4.666249E-01
  4.690627E-01
  4.675615E-01
  4.696527E-01
  4.681216E-01
  4.705980E-01
  4.696404E-01
  4.724542E-01
  4.712188E-01
  4.730232E-01
  4.702703E-01
  4.705194E-01
  4.666860E-01
  4.666724E-01
  4.634430E-01
  4.646610E-01
  4.628826E-01
  4.653629E-01
  4.643963E-01
  4.671888E-01
  4.661683E-01
  4.687546E-01
  4.675480E-01
  4.700165E-01
  4.686758E-01
  4.708459E-01
  4.689410E-01
  4.703184E-01
  4.675906E-01
  4.684048E-01
  4.656226E-01
  4.669700E-01
  4.651605E-01
  4.675969E-01
  4.666285E-01
  4.693994E-01
  4.681906E-01
  4.702623E-01
  4.681251E-01
  4.693012E-01
  4.665408E-01
  4.675463E-01
  4.651447E-01
  4.669605E-01
  4.655659E-01
  4.682090E-01
  4.671015E-01
  4.693113E-01
  4.671571E-01
  4.680871E-01
  4.649381E-01
  4.656074E-01
  4.631157E-01
  4.651741E-01
  4.665652E-01
  4.686764E-01
  4.675962E-01
  4.693270E-01
  4.674558E-01
  4.683220E-01
  4.659672E-01
  4.670343E-01
  4.655093E-01
  4.676282E-01
  4.668524E-01
  4.690938E-01
  4.678885E-01
  4.695677E-01
  4.681549E-01
  4.702092E-01
  4.695520E-01
  4.722116E-01
  4.714697E-01
  4.731459E-01
  4.707934E-01
  4.708502E-01
  4.675069E-01
  4.675411E-01
  4.650606E-01
  4.664507E-01
  4.653578E-01
  4.678363E-01
  4.673899E-01
  4.700568E-01
  4.693722E-01
  4.714407E-01
  4.699408E-01
  4.712114E-01
  4.691799E-01
  4.703120E-01
  4.684518E-01
  4.698239E-01
  4.680461E-01
  4.693007E-01
  4.673757E-01
  4.686952E-01
  4.671583E-01
  4.690627E-01
  4.680145E-01
  4.700409E-01
  4.686636E-01
  4.700450E-01
  4.679693E-01
  4.688572E-01
  4.666567E-01
  4.678248E-01
  4.662168E-01
  4.680848E-01
  4.670232E-01
  4.690717E-01
  4.677686E-01
  4.692873E-01
  4.674106E-01
  4.685285E-01
  4.665188E-01
  4.677539E-01
  4.660554E-01
  4.677447E-01
  4.636001E-01
  4.657400E-01
  4.656823E-01
  4.680320E-01
  4.675527E-01
  4.691461E-01
  4.679632E-01
  4.691763E-01
  4.679640E-01
  4.693121E-01
  4.681595E-01
  4.693833E-01
  4.680294E-01
  4.692238E-01
  4.682151E-01
  4.701071E-01
  4.698544E-01
  4.721212E-01
  4.715101E-01
  4.726293E-01
  4.703885E-01
  4.699519E-01
  4.667961E-01
  4.664166E-01
  4.642463E-01
  4.653928E-01
  4.647394E-01
  4.669266E-01
  4.666400E-01
  4.686360E-01
  4.679206E-01
  4.695810E-01
  4.687894E-01
  4.705654E-01
  4.698418E-01
  4.713802E-01
  4.699990E-01
  4.705771E-01
  4.682489E-01
  4.682660E-01
  4.660123E-01
  4.667396E-01
  4.655784E-01
  4.673937E-01
  4.669701E-01
  4.690018E-01
  4.683087E-01
  4.697575E-01
  4.683737E-01
  4.691937E-01
  4.673658E-01
  4.680188E-01
  4.663585E-01
  4.674966E-01
  4.665059E-01
  4.682586E-01
  4.675601E-01
  4.691033E-01
  4.676966E-01
  4.682384E-01
  4.658846E-01
  4.659011E-01
  4.636907E-01
  4.645369E-01
  4.659145E-01
  4.670085E-01
  4.666076E-01
  4.681457E-01
  4.677491E-01
  4.688966E-01
  4.679860E-01
  4.688137E-01
  4.679234E-01
  4.689929E-01
  4.682872E-01
  4.692720E-01
  4.682497E-01
  4.689723E-01
  4.680783E-01
  4.694382E-01
  4.694449E-01
  4.714519E-01
  4.713577E-01
  4.723625E-01
  4.706877E-01
  4.701903E-01
  4.677420E-01
  4.675089E-01
  4.661972E-01
  4.674617E-01
  4.674403E-01
  4.694255E-01
  4.694949E-01
  4.711008E-01
  4.705468E-01
  4.714692E-01
  4.702974E-01
  4.707633E-01
  4.693640E-01
  4.698315E-01
  4.685657E-01
  4.691456E-01
  4.678677E-01
  4.683452E-01
  4.670333E-01
  4.677072E-01
  4.668490E-01
  4.680830E-01
  4.676500E-01
  4.689940E-01
  4.683367E-01
  4.692525E-01
  4.681535E-01
  4.687745E-01
  4.676185E-01
  4.684382E-01
  4.676778E-01
  4.689504E-01
  4.685104E-01
  4.698147E-01
  4.690880E-01
  4.699069E-01
  4.686859E-01
  4.691377E-01
  4.676956E-01
  4.680235E-01
  4.665448E-01
  4.670017E-01
  4.631047E-01
  4.645510E-01
  4.649667E-01
  4.671827E-01
  4.677276E-01
  4.695198E-01
  4.693287E-01
  4.703396E-01
  4.694968E-01
  4.700269E-01
  4.688347E-01
  4.691279E-01
  4.678782E-01
  4.684163E-01
  4.677801E-01
  4.691930E-01
  4.693884E-01
  4.711952E-01
  4.710547E-01
  4.717800E-01
  4.701272E-01
  4.694505E-01
  4.670506E-01
  4.665854E-01
  4.652701E-01
  4.663152E-01
  4.663291E-01
  4.680419E-01
  4.679301E-01
  4.689788E-01
  4.681424E-01
  4.688323E-01
  4.681481E-01
  4.693067E-01
  4.690065E-01
  4.700976E-01
  4.691592E-01
  4.692413E-01
  4.673393E-01
  4.669226E-01
  4.652032E-01
  4.655724E-01
  4.649311E-01
  4.662943E-01
  4.662919E-01
  4.678558E-01
  4.676914E-01
  4.688709E-01
  4.682247E-01
  4.689161E-01
  4.678625E-01
  4.683336E-01
  4.673453E-01
  4.681881E-01
  4.677640E-01
  4.691256E-01
  4.689021E-01
  4.699631E-01
  4.689380E-01
  4.688966E-01
  4.668056E-01
  4.660935E-01
  4.639835E-01
  4.639666E-01
  4.658527E-01
  4.665925E-01
  4.663188E-01
  4.676937E-01
  4.676870E-01
  4.688783E-01
  4.683840E-01
  4.690574E-01
  4.682317E-01
  4.687931E-01
  4.679465E-01
  4.684371E-01
  4.674700E-01
  4.679622E-01
  4.673323E-01
  4.685511E-01
  4.688098E-01
  4.706371E-01
  4.708057E-01
  4.717179E-01
  4.704363E-01
  4.699568E-01
  4.679437E-01
  4.676926E-01
  4.667215E-01
  4.678326E-01
  4.679746E-01
  4.695805E-01
  4.695560E-01
  4.705541E-01
  4.697882E-01
  4.701488E-01
  4.689586E-01
  4.691193E-01
  4.679189E-01
  4.682010E-01
  4.671736E-01
  4.675963E-01
  4.666335E-01
  4.670802E-01
  4.661985E-01
  4.668673E-01
  4.663399E-01
  4.673797E-01
  4.670860E-01
  4.681271E-01
  4.676191E-01
  4.683375E-01
  4.675327E-01
  4.680907E-01
  4.673303E-01
  4.681549E-01
  4.678270E-01
  4.691039E-01
  4.690463E-01
  4.702503E-01
  4.697602E-01
  4.703241E-01
  4.692162E-01
  4.693511E-01
  4.680246E-01
  4.680715E-01
  4.667282E-01
  4.668731E-01
  4.637628E-01
  4.650385E-01
  4.653080E-01
  4.671534E-01
  4.675484E-01
  4.690978E-01
  4.688898E-01
  4.696943E-01
  4.687617E-01
  4.689822E-01
  4.676785E-01
  4.677878E-01
  4.666739E-01
  4.672940E-01
  4.669618E-01
  4.684707E-01
  4.688661E-01
  4.706478E-01
  4.706647E-01
  4.714246E-01
  4.700287E-01
  4.694231E-01
  4.671823E-01
  4.665658E-01
  4.651444E-01
  4.658278E-01
  4.656365E-01
  4.669946E-01
  4.667486E-01
  4.675406E-01
  4.666809E-01
  4.672356E-01
  4.666472E-01
  4.677583E-01
  4.675872E-01
  4.686213E-01
  4.678105E-01
  4.678994E-01
  4.662721E-01
  4.660470E-01
  4.647342E-01
  4.652918E-01
  4.648941E-01
  4.661692E-01
  4.661099E-01
  4.673484E-01
  4.670052E-01
  4.678645E-01
  4.671566E-01
  4.677278E-01
  4.668543E-01
  4.674326E-01
  4.667743E-01
  4.677483E-01
  4.675433E-01
  4.688312E-01
  4.686058E-01
  4.694424E-01
  4.684009E-01
  4.682777E-01
  4.664317E-01
  4.659235E-01
  4.642453E-01
  4.644213E-01
  4.673708E-01
  4.679005E-01
  4.673953E-01
  4.680354E-01
  4.675985E-01
  4.681559E-01
  4.674885E-01
  4.677787E-01
  4.669370E-01
  4.672003E-01
  4.664386E-01
  4.668203E-01
  4.662075E-01
  4.668483E-01
  4.667036E-01
  4.680180E-01
  4.685709E-01
  4.702883E-01
  4.706496E-01
  4.714852E-01
  4.704834E-01
  4.699306E-01
  4.680192E-01
  4.673503E-01
  4.660958E-01
  4.665276E-01
  4.663593E-01
  4.674995E-01
  4.675337E-01
  4.684686E-01
  4.680923E-01
  4.685874E-01
  4.678316E-01
  4.680349E-01
  4.670914E-01
  4.672345E-01
  4.663678E-01
  4.666969E-01
  4.660706E-01
  4.666482E-01
  4.662613E-01
  4.670616E-01
  4.668445E-01
  4.676886E-01
  4.673207E-01
  4.678189E-01
  4.670084E-01
  4.671317E-01
  4.661717E-01
  4.664554E-01
  4.659482E-01
  4.668634E-01
  4.669794E-01
  4.682923E-01
  4.684064E-01
  4.692766E-01
  4.686526E-01
  4.687815E-01
  4.677130E-01
  4.678385E-01
  4.671196E-01
  4.676943E-01
  4.672736E-01
  4.678994E-01
  4.660475E-01
  4.668811E-01
  4.670149E-01
  4.677077E-01
  4.676714E-01
  4.681801E-01
  4.679020E-01
  4.680711E-01
  4.673793E-01
  4.671629E-01
  4.662590E-01
  4.661299E-01
  4.656619E-01
  4.662574E-01
  4.666418E-01
  4.679990E-01
  4.688421E-01
  4.702055E-01
  4.705464E-01
  4.709479E-01
  4.700253E-01
  4.691289E-01
  4.672139E-01
  4.659414E-01
  4.644024E-01
  4.641141E-01
  4.637766E-01
  4.644567E-01
  4.645871E-01
  4.652848E-01
  4.652782E-01
  4.659943E-01
  4.662553E-01
  4.673016E-01
  4.676304E-01
  4.682610E-01
  4.677459E-01
  4.674268E-01
  4.662678E-01
  4.658841E-01
  4.652355E-01
  4.656726E-01
  4.657792E-01
  4.666037E-01
  4.666267E-01
  4.670063E-01
  4.664644E-01
  4.664090E-01
  4.657187E-01
  4.658233E-01
  4.655094E-01
  4.660600E-01
  4.661219E-01
  4.668837E-01
  4.669500E-01
  4.675083E-01
  4.671954E-01
  4.672701E-01
  4.664869E-01
  4.662528E-01
  4.654483E-01
  4.655157E-01
  4.652438E-01
  4.658878E-01
  4.700920E-01
  4.698470E-01
  4.694073E-01
  4.685533E-01
  4.678873E-01
  4.670838E-01
  4.665969E-01
  4.660016E-01
  4.657246E-01
  4.653543E-01
  4.653327E-01
  4.652532E-01
  4.655631E-01
  4.658689E-01
  4.666206E-01
  4.673827E-01
  4.684977E-01
  4.693742E-01
  4.702113E-01
  4.703671E-01
  4.701423E-01
  4.691478E-01
  4.680112E-01
  4.666173E-01
  4.656955E-01
  4.650189E-01
  4.650550E-01
  4.652932E-01
  4.660094E-01
  4.666269E-01
  4.674343E-01
  4.678823E-01
  4.682855E-01
  4.681550E-01
  4.679361E-01
  4.673212E-01
  4.669090E-01
  4.664390E-01
  4.664340E-01
  4.664846E-01
  4.669600E-01
  4.673288E-01
  4.678679E-01
  4.679838E-01
  4.679561E-01
  4.673072E-01
  4.665530E-01
  4.655014E-01
  4.648771E-01
  4.645105E-01
  4.649338E-01
  4.656357E-01
  4.667824E-01
  4.676053E-01
  4.682201E-01
  4.680491E-01
  4.675916E-01
  4.667112E-01
  4.662233E-01
  4.660294E-01
  4.666679E-01
  4.675648E-01
  4.688040E-01
  4.695878E-01
  4.687116E-01
  4.684605E-01
  4.688844E-01
  4.679331E-01
  4.679668E-01
  4.669665E-01
  4.671366E-01
  4.662467E-01
  4.663856E-01
  4.653746E-01
  4.654772E-01
  4.646896E-01
  4.653293E-01
  4.652776E-01
  4.666226E-01
  4.670201E-01
  4.684448E-01
  4.685796E-01
  4.695034E-01
  4.689882E-01
  4.691502E-01
  4.678004E-01
  4.671798E-01
  4.653225E-01
  4.646871E-01
  4.633651E-01
  4.636373E-01
  4.632709E-01
  4.642725E-01
  4.643394E-01
  4.656024E-01
  4.659136E-01
  4.674137E-01
  4.677813E-01
  4.689344E-01
  4.684824E-01
  4.685400E-01
  4.671139E-01
  4.667128E-01
  4.655204E-01
  4.659099E-01
  4.656844E-01
  4.667757E-01
  4.666856E-01
  4.673098E-01
  4.663819E-01
  4.661844E-01
  4.648211E-01
  4.647697E-01
  4.640764E-01
  4.649463E-01
  4.650693E-01
  4.663706E-01
  4.664438E-01
  4.673085E-01
  4.667629E-01
  4.670366E-01
  4.660806E-01
  4.662147E-01
  4.654338E-01
  4.660469E-01
  4.659452E-01
  4.672245E-01
  4.675109E-01
  4.721739E-01
  4.706951E-01
  4.707254E-01
  4.683518E-01
  4.680445E-01
  4.658207E-01
  4.659585E-01
  4.642795E-01
  4.649402E-01
  4.637268E-01
  4.648091E-01
  4.639892E-01
  4.654289E-01
  4.648990E-01
  4.665288E-01
  4.660766E-01
  4.676842E-01
  4.671312E-01
  4.685634E-01
  4.677375E-01
  4.687744E-01
  4.674508E-01
  4.679828E-01
  4.662967E-01
  4.667429E-01
  4.652956E-01
  4.662464E-01
  4.654424E-01
  4.670374E-01
  4.667590E-01
  4.686511E-01
  4.683348E-01
  4.697906E-01
  4.686917E-01
  4.692229E-01
  4.673602E-01
  4.675566E-01
  4.658936E-01
  4.667277E-01
  4.659045E-01
  4.675115E-01
  4.671683E-01
  4.688102E-01
  4.679970E-01
  4.687333E-01
  4.668118E-01
  4.666056E-01
  4.642887E-01
  4.644560E-01
  4.632196E-01
  4.648321E-01
  4.649193E-01
  4.672997E-01
  4.673792E-01
  4.690390E-01
  4.679948E-01
  4.685701E-01
  4.669018E-01
  4.675618E-01
  4.666616E-01
  4.684701E-01
  4.686268E-01
  4.709493E-01
  4.708364E-01
  4.698136E-01
  4.684681E-01
  4.694246E-01
  4.673943E-01
  4.679543E-01
  4.659069E-01
  4.667062E-01
  4.649330E-01
  4.658878E-01
  4.641640E-01
  4.652099E-01
  4.637724E-01
  4.653243E-01
  4.644659E-01
  4.664337E-01
  4.656543E-01
  4.673713E-01
  4.661917E-01
  4.675801E-01
  4.662462E-01
  4.675791E-01
  4.661245E-01
  4.671848E-01
  4.653933E-01
  4.662556E-01
  4.645614E-01
  4.658005E-01
  4.645951E-01
  4.662584E-01
  4.653578E-01
  4.672734E-01
  4.666366E-01
  4.687619E-01
  4.680843E-01
  4.697339E-01
  4.681510E-01
  4.687318E-01
  4.663409E-01
  4.667389E-01
  4.648939E-01
  4.663411E-01
  4.655919E-01
  4.677016E-01
  4.668940E-01
  4.682546E-01
  4.663384E-01
  4.667145E-01
  4.643598E-01
  4.650200E-01
  4.635372E-01
  4.652939E-01
  4.647269E-01
  4.669593E-01
  4.664030E-01
  4.683395E-01
  4.673840E-01
  4.689438E-01
  4.676588E-01
  4.689310E-01
  4.674456E-01
  4.687024E-01
  4.674456E-01
  4.690929E-01
  4.681599E-01
  4.721574E-01
  4.700717E-01
  4.704990E-01
  4.677776E-01
  4.679422E-01
  4.653369E-01
  4.658931E-01
  4.638132E-01
  4.649151E-01
  4.633432E-01
  4.648976E-01
  4.637100E-01
  4.655480E-01
  4.644968E-01
  4.662989E-01
  4.650720E-01
  4.666544E-01
  4.652830E-01
  4.668709E-01
  4.656383E-01
  4.674014E-01
  4.662691E-01
  4.680045E-01
  4.667487E-01
  4.683486E-01
  4.670202E-01
  4.686421E-01
  4.674260E-01
  4.692266E-01
  4.682054E-01
  4.701187E-01
  4.689882E-01
  4.704599E-01
  4.685777E-01
  4.691925E-01
  4.666701E-01
  4.671435E-01
  4.650747E-01
  4.664640E-01
  4.654858E-01
  4.678193E-01
  4.673770E-01
  4.696786E-01
  4.686049E-01
  4.698042E-01
  4.674588E-01
  4.676300E-01
  4.648760E-01
  4.654282E-01
  4.637216E-01
  4.656269E-01
  4.651477E-01
  4.678298E-01
  4.675553E-01
  4.699438E-01
  4.690717E-01
  4.707902E-01
  4.693831E-01
  4.708419E-01
  4.694891E-01
  4.712336E-01
  4.702103E-01
  4.720999E-01
  4.708656E-01
  4.688380E-01
  4.676438E-01
  4.686222E-01
  4.671387E-01
  4.678588E-01
  4.663087E-01
  4.671291E-01
  4.656964E-01
  4.665246E-01
  4.650010E-01
  4.657819E-01
  4.644111E-01
  4.655803E-01
  4.646958E-01
  4.662168E-01
  4.653787E-01
  4.666550E-01
  4.654753E-01
  4.665499E-01
  4.654212E-01
  4.667193E-01
  4.657961E-01
  4.671427E-01
  4.661253E-01
  4.673633E-01
  4.663296E-01
  4.676294E-01
  4.666289E-01
  4.678580E-01
  4.667335E-01
  4.679272E-01
  4.669484E-01
  4.683920E-01
  4.675385E-01
  4.687586E-01
  4.672971E-01
  4.677494E-01
  4.657456E-01
  4.662159E-01
  4.648784E-01
  4.664362E-01
  4.661620E-01
  4.683027E-01
  4.678793E-01
  4.692097E-01
  4.676700E-01
  4.680440E-01
  4.660648E-01
  4.666101E-01