# vtk DataFile Version 2.0
title
ASCII
DATASET STRUCTURED_GRID
DIMENSIONS   64   64    1
POINTS   4096  float
  0.000000E+00  0.000000E+00  0.000000E+00
  0.000000E+00  3.906250E-01  0.000000E+00
  0.000000E+00  7.812500E-01  0.000000E+00
  0.000000E+00  1.171875E+00  0.000000E+00
  0.000000E+00  1.562500E+00  0.000000E+00
  0.000000E+00  1.953125E+00  0.000000E+00
  0.000000E+00  2.343750E+00  0.000000E+00
  0.000000E+00  2.734375E+00  0.000000E+00
  0.000000E+00  3.125000E+00  0.000000E+00
  0.000000E+00  3.515625E+00  0.000000E+00
  0.000000E+00  3.906250E+00  0.000000E+00
  0.000000E+00  4.296875E+00  0.000000E+00
  0.000000E+00  4.687500E+00  0.000000E+00
  0.000000E+00  5.078125E+00  0.000000E+00
  0.000000E+00  5.468750E+00  0.000000E+00
  0.000000E+00  5.859375E+00  0.000000E+00
  0.000000E+00  6.250000E+00  0.000000E+00
  0.000000E+00  6.640625E+00  0.000000E+00
  0.000000E+00  7.031250E+00  0.000000E+00
  0.000000E+00  7.421875E+00  0.000000E+00
  0.000000E+00  7.812500E+00  0.000000E+00
  0.000000E+00  8.203125E+00  0.000000E+00
  0.000000E+00  8.593750E+00  0.000000E+00
  0.000000E+00  8.984375E+00  0.000000E+00
  0.000000E+00  9.375000E+00  0.000000E+00
  0.000000E+00  9.765625E+00  0.000000E+00
  0.000000E+00  1.015625E+01  0.000000E+00
  0.000000E+00  1.054688E+01  0.000000E+00
  0.000000E+00  1.093750E+01  0.000000E+00
  0.000000E+00  1.132812E+01  0.000000E+00
  0.000000E+00  1.171875E+01  0.000000E+00
  0.000000E+00  1.210938E+01  0.000000E+00
  0.000000E+00  1.250000E+01  0.000000E+00
  0.000000E+00  1.289062E+01  0.000000E+00
  0.000000E+00  1.328125E+01  0.000000E+00
  0.000000E+00  1.367188E+01  0.000000E+00
  0.000000E+00  1.406250E+01  0.000000E+00
  0.000000E+00  1.445312E+01  0.000000E+00
  0.000000E+00  1.484375E+01  0.000000E+00
  0.000000E+00  1.523438E+01  0.000000E+00
  0.000000E+00  1.562500E+01  0.000000E+00
  0.000000E+00  1.601562E+01  0.000000E+00
  0.000000E+00  1.640625E+01  0.000000E+00
  0.000000E+00  1.679688E+01  0.000000E+00
  0.000000E+00  1.718750E+01  0.000000E+00
  0.000000E+00  1.757812E+01  0.000000E+00
  0.000000E+00  1.796875E+01  0.000000E+00
  0.000000E+00  1.835938E+01  0.000000E+00
  0.000000E+00  1.875000E+01  0.000000E+00
  0.000000E+00  1.914062E+01  0.000000E+00
  0.000000E+00  1.953125E+01  0.000000E+00
  0.000000E+00  1.992188E+01  0.000000E+00
  0.000000E+00  2.031250E+01  0.000000E+00
  0.000000E+00  2.070312E+01  0.000000E+00
  0.000000E+00  2.109375E+01  0.000000E+00
  0.000000E+00  2.148438E+01  0.000000E+00
  0.000000E+00  2.187500E+01  0.000000E+00
  0.000000E+00  2.226562E+01  0.000000E+00
  0.000000E+00  2.265625E+01  0.000000E+00
  0.000000E+00  2.304688E+01  0.000000E+00
  0.000000E+00  2.343750E+01  0.000000E+00
  0.000000E+00  2.382812E+01  0.000000E+00
  0.000000E+00  2.421875E+01  0.000000E+00
  0.000000E+00  2.460938E+01  0.000000E+00
  3.906250E-01  0.000000E+00  0.000000E+00
  3.906250E-01  3.906250E-01  0.000000E+00
  3.906250E-01  7.812500E-01  0.000000E+00
  3.906250E-01  1.171875E+00  0.000000E+00
  3.906250E-01  1.562500E+00  0.000000E+00
  3.906250E-01  1.953125E+00  0.000000E+00
  3.906250E-01  2.343750E+00  0.000000E+00
  3.906250E-01  2.734375E+00  0.000000E+00
  3.906250E-01  3.125000E+00  0.000000E+00
  3.906250E-01  3.515625E+00  0.000000E+00
  3.906250E-01  3.906250E+00  0.000000E+00
  3.906250E-01  4.296875E+00  0.000000E+00
  3.906250E-01  4.687500E+00  0.000000E+00
  3.906250E-01  5.078125E+00  0.000000E+00
  3.906250E-01  5.468750E+00  0.000000E+00
  3.906250E-01  5.859375E+00  0.000000E+00
  3.906250E-01  6.250000E+00  0.000000E+00
  3.906250E-01  6.640625E+00  0.000000E+00
  3.906250E-01  7.031250E+00  0.000000E+00
  3.906250E-01  7.421875E+00  0.000000E+00
  3.906250E-01  7.812500E+00  0.000000E+00
  3.906250E-01  8.203125E+00  0.000000E+00
  3.906250E-01  8.593750E+00  0.000000E+00
  3.906250E-01  8.984375E+00  0.000000E+00
  3.906250E-01  9.375000E+00  0.000000E+00
  3.906250E-01  9.765625E+00  0.000000E+00
  3.906250E-01  1.015625E+01  0.000000E+00
  3.906250E-01  1.054688E+01  0.000000E+00
  3.906250E-01  1.093750E+01  0.000000E+00
  3.906250E-01  1.132812E+01  0.000000E+00
  3.906250E-01  1.171875E+01  0.000000E+00
  3.906250E-01  1.210938E+01  0.000000E+00
  3.906250E-01  1.250000E+01  0.000000E+00
  3.906250E-01  1.289062E+01  0.000000E+00
  3.906250E-01  1.328125E+01  0.000000E+00
  3.906250E-01  1.367188E+01  0.000000E+00
  3.906250E-01  1.406250E+01  0.000000E+00
  3.906250E-01  1.445312E+01  0.000000E+00
  3.906250E-01  1.484375E+01  0.000000E+00
  3.906250E-01  1.523438E+01  0.000000E+00
  3.906250E-01  1.562500E+01  0.000000E+00
  3.906250E-01  1.601562E+01  0.000000E+00
  3.906250E-01  1.640625E+01  0.000000E+00
  3.906250E-01  1.679688E+01  0.000000E+00
  3.906250E-01  1.718750E+01  0.000000E+00
  3.906250E-01  1.757812E+01  0.000000E+00
  3.906250E-01  1.796875E+01  0.000000E+00
  3.906250E-01  1.835938E+01  0.000000E+00
  3.906250E-01  1.875000E+01  0.000000E+00
  3.906250E-01  1.914062E+01  0.000000E+00
  3.906250E-01  1.953125E+01  0.000000E+00
  3.906250E-01  1.992188E+01  0.000000E+00
  3.906250E-01  2.031250E+01  0.000000E+00
  3.906250E-01  2.070312E+01  0.000000E+00
  3.906250E-01  2.109375E+01  0.000000E+00
  3.906250E-01  2.148438E+01  0.000000E+00
  3.906250E-01  2.187500E+01  0.000000E+00
  3.906250E-01  2.226562E+01  0.000000E+00
  3.906250E-01  2.265625E+01  0.000000E+00
  3.906250E-01  2.304688E+01  0.000000E+00
  3.906250E-01  2.343750E+01  0.000000E+00
  3.906250E-01  2.382812E+01  0.000000E+00
  3.906250E-01  2.421875E+01  0.000000E+00
  3.906250E-01  2.460938E+01  0.000000E+00
  7.812500E-01  0.000000E+00  0.000000E+00
  7.812500E-01  3.906250E-01  0.000000E+00
  7.812500E-01  7.812500E-01  0.000000E+00
  7.812500E-01  1.171875E+00  0.000000E+00
  7.812500E-01  1.562500E+00  0.000000E+00
  7.812500E-01  1.953125E+00  0.000000E+00
  7.812500E-01  2.343750E+00  0.000000E+00
  7.812500E-01  2.734375E+00  0.000000E+00
  7.812500E-01  3.125000E+00  0.000000E+00
  7.812500E-01  3.515625E+00  0.000000E+00
  7.812500E-01  3.906250E+00  0.000000E+00
  7.812500E-01  4.296875E+00  0.000000E+00
  7.812500E-01  4.687500E+00  0.000000E+00
  7.812500E-01  5.078125E+00  0.000000E+00
  7.812500E-01  5.468750E+00  0.000000E+00
  7.812500E-01  5.859375E+00  0.000000E+00
  7.812500E-01  6.250000E+00  0.000000E+00
  7.812500E-01  6.640625E+00  0.000000E+00
  7.812500E-01  7.031250E+00  0.000000E+00
  7.812500E-01  7.421875E+00  0.000000E+00
  7.812500E-01  7.812500E+00  0.000000E+00
  7.812500E-01  8.203125E+00  0.000000E+00
  7.812500E-01  8.593750E+00  0.000000E+00
  7.812500E-01  8.984375E+00  0.000000E+00
  7.812500E-01  9.375000E+00  0.000000E+00
  7.812500E-01  9.765625E+00  0.000000E+00
  7.812500E-01  1.015625E+01  0.000000E+00
  7.812500E-01  1.054688E+01  0.000000E+00
  7.812500E-01  1.093750E+01  0.000000E+00
  7.812500E-01  1.132812E+01  0.000000E+00
  7.812500E-01  1.171875E+01  0.000000E+00
  7.812500E-01  1.210938E+01  0.000000E+00
  7.812500E-01  1.250000E+01  0.000000E+00
  7.812500E-01  1.289062E+01  0.000000E+00
  7.812500E-01  1.328125E+01  0.000000E+00
  7.812500E-01  1.367188E+01  0.000000E+00
  7.812500E-01  1.406250E+01  0.000000E+00
  7.812500E-01  1.445312E+01  0.000000E+00
  7.812500E-01  1.484375E+01  0.000000E+00
  7.812500E-01  1.523438E+01  0.000000E+00
  7.812500E-01  1.562500E+01  0.000000E+00
  7.812500E-01  1.601562E+01  0.000000E+00
  7.812500E-01  1.640625E+01  0.000000E+00
  7.812500E-01  1.679688E+01  0.000000E+00
  7.812500E-01  1.718750E+01  0.000000E+00
  7.812500E-01  1.757812E+01  0.000000E+00
  7.812500E-01  1.796875E+01  0.000000E+00
  7.812500E-01  1.835938E+01  0.000000E+00
  7.812500E-01  1.875000E+01  0.000000E+00
  7.812500E-01  1.914062E+01  0.000000E+00
  7.812500E-01  1.953125E+01  0.000000E+00
  7.812500E-01  1.992188E+01  0.000000E+00
  7.812500E-01  2.031250E+01  0.000000E+00
  7.812500E-01  2.070312E+01  0.000000E+00
  7.812500E-01  2.109375E+01  0.000000E+00
  7.812500E-01  2.148438E+01  0.000000E+00
  7.812500E-01  2.187500E+01  0.000000E+00
  7.812500E-01  2.226562E+01  0.000000E+00
  7.812500E-01  2.265625E+01  0.000000E+00
  7.812500E-01  2.304688E+01  0.000000E+00
  7.812500E-01  2.343750E+01  0.000000E+00
  7.812500E-01  2.382812E+01  0.000000E+00
  7.812500E-01  2.421875E+01  0.000000E+00
  7.812500E-01  2.460938E+01  0.000000E+00
  1.171875E+00  0.000000E+00  0.000000E+00
  1.171875E+00  3.906250E-01  0.000000E+00
  1.171875E+00  7.812500E-01  0.000000E+00
  1.171875E+00  1.171875E+00  0.000000E+00
  1.171875E+00  1.562500E+00  0.000000E+00
  1.171875E+00  1.953125E+00  0.000000E+00
  1.171875E+00  2.343750E+00  0.000000E+00
  1.171875E+00  2.734375E+00  0.000000E+00
  1.171875E+00  3.125000E+00  0.000000E+00
  1.171875E+00  3.515625E+00  0.000000E+00
  1.171875E+00  3.906250E+00  0.000000E+00
  1.171875E+00  4.296875E+00  0.000000E+00
  1.171875E+00  4.687500E+00  0.000000E+00
  1.171875E+00  5.078125E+00  0.000000E+00
  1.171875E+00  5.468750E+00  0.000000E+00
  1.171875E+00  5.859375E+00  0.000000E+00
  1.171875E+00  6.250000E+00  0.000000E+00
  1.171875E+00  6.640625E+00  0.000000E+00
  1.171875E+00  7.031250E+00  0.000000E+00
  1.171875E+00  7.421875E+00  0.000000E+00
  1.171875E+00  7.812500E+00  0.000000E+00
  1.171875E+00  8.203125E+00  0.000000E+00
  1.171875E+00  8.593750E+00  0.000000E+00
  1.171875E+00  8.984375E+00  0.000000E+00
  1.171875E+00  9.375000E+00  0.000000E+00
  1.171875E+00  9.765625E+00  0.000000E+00
  1.171875E+00  1.015625E+01  0.000000E+00
  1.171875E+00  1.054688E+01  0.000000E+00
  1.171875E+00  1.093750E+01  0.000000E+00
  1.171875E+00  1.132812E+01  0.000000E+00
  1.171875E+00  1.171875E+01  0.000000E+00
  1.171875E+00  1.210938E+01  0.000000E+00
  1.171875E+00  1.250000E+01  0.000000E+00
  1.171875E+00  1.289062E+01  0.000000E+00
  1.171875E+00  1.328125E+01  0.000000E+00
  1.171875E+00  1.367188E+01  0.000000E+00
  1.171875E+00  1.406250E+01  0.000000E+00
  1.171875E+00  1.445312E+01  0.000000E+00
[...]
POINT_DATA   4096
SCALARS CON  float  1
LOOKUP_TABLE default
  4.695185E-01
  4.684594E-01
  4.708614E-01
  4.694214E-01
  4.711742E-01
  4.690875E-01
  4.704120E-01
  4.681984E-01
  4.696447E-01
  4.676769E-01
  4.693799E-01
  4.676329E-01
  4.695417E-01
  4.680277E-01
  4.702039E-01
  4.689337E-01
  4.712209E-01
  4.698201E-01
  4.716860E-01
  4.696206E-01
  4.707186E-01
  4.679713E-01
  4.686486E-01
  4.658427E-01
  4.668182E-01
  4.645616E-01
  4.661729E-01
  4.644773E-01
  4.664730E-01
  4.649723E-01
  4.670367E-01
  4.655707E-01
  4.676998E-01
  4.663260E-01
  4.685066E-01
  4.670490E-01
  4.689471E-01
  4.670206E-01
  4.683616E-01
  4.659453E-01
  4.670239E-01
  4.646826E-01
  4.661950E-01
  4.645680E-01
  4.669117E-01
  4.660223E-01
  4.688078E-01
  4.679345E-01
  4.703062E-01
  4.687292E-01
  4.703577E-01
  4.682717E-01
  4.698107E-01
  4.680641E-01
  4.701875E-01
  4.689644E-01
  4.712583E-01
  4.697142E-01
  4.712850E-01
  4.689018E-01
  4.698748E-01
  4.674003E-01
  4.688397E-01
  4.672039E-01
  4.713243E-01
  4.706552E-01
  4.718816E-01
  4.705088E-01
  4.709283E-01
  4.689436E-01
  4.691555E-01
  4.674098E-01
  4.681819E-01
  4.670970E-01
  4.684223E-01
  4.676747E-01
  4.691375E-01
  4.684268E-01
  4.699281E-01
  4.692917E-01
  4.708470E-01
  4.701337E-01
  4.713866E-01
  4.701316E-01
  4.706971E-01
  4.687831E-01
  4.689077E-01
  4.669054E-01
  4.673248E-01
  4.659174E-01
  4.670649E-01
  4.663225E-01
  4.679065E-01
  4.672846E-01
  4.686845E-01
  4.676735E-01
  4.686287E-01
  4.672617E-01
  4.680371E-01
  4.666707E-01
  4.675565E-01
  4.663056E-01
  4.672292E-01
  4.659217E-01
  4.667549E-01
  4.654319E-01
  4.664252E-01
  4.654729E-01
  4.669850E-01
  4.665538E-01
  4.684164E-01
  4.680418E-01
  4.696554E-01
  4.688421E-01
  4.700276E-01
  4.689934E-01
  4.702634E-01
  4.695648E-01
  4.712327E-01
  4.707551E-01
  4.722934E-01
  4.713186E-01
  4.721503E-01
  4.705290E-01
  4.710354E-01
  4.695426E-01
  4.705706E-01
  4.697599E-01
  4.680742E-01
  4.686756E-01
  4.697117E-01
  4.699016E-01
  4.701604E-01
  4.695419E-01
  4.692516E-01
  4.684796E-01
  4.683892E-01
  4.680102E-01
  4.683297E-01
  4.682705E-01
  4.688088E-01
  4.689185E-01
  4.696222E-01
  4.698816E-01
  4.706386E-01
  4.707449E-01
  4.710683E-01
  4.704764E-01
  4.699600E-01
  4.685841E-01
  4.675448E-01
  4.660484E-01
  4.653183E-01
  4.644672E-01
  4.645414E-01
  4.644588E-01
  4.651188E-01
  4.653806E-01
  4.661717E-01
  4.664273E-01
  4.671456E-01
  4.672871E-01
  4.678228E-01
  4.676629E-01
  4.677528E-01
  4.670397E-01
  4.665775E-01
  4.654661E-01
  4.649050E-01
  4.640783E-01
  4.641709E-01
  4.642469E-01
  4.652902E-01
  4.661329E-01
  4.675622E-01
  4.683133E-01
  4.692190E-01
  4.692035E-01
  4.693779E-01
  4.689361E-01
  4.691397E-01
  4.691389E-01
  4.699597E-01
  4.704142E-01
  4.712353E-01
  4.711266E-01
  4.709634E-01
  4.697980E-01
  4.689180E-01
  4.676726E-01
  4.673983E-01
  4.672207E-01
  4.694847E-01
  4.704843E-01
  4.702624E-01
  4.705397E-01
  4.694345E-01
  4.690017E-01
  4.676171E-01
  4.674164E-01
  4.666599E-01
  4.672395E-01
  4.671611E-01
  4.681601E-01
  4.682324E-01
  4.692176E-01
  4.692442E-01
  4.702230E-01
  4.702499E-01
  4.711243E-01
  4.708260E-01
  4.711156E-01
  4.700532E-01
  4.695816E-01
  4.679785E-01
  4.673554E-01
  4.660469E-01
  4.660905E-01
  4.656432E-01
  4.665201E-01
  4.666789E-01
  4.678130E-01
  4.678644E-01
  4.686114E-01
  4.681451E-01
  4.684029E-01
  4.675912E-01
  4.676852E-01
  4.668526E-01
  4.669887E-01
  4.661910E-01
  4.663369E-01
  4.655681E-01
  4.658411E-01
  4.653606E-01
  4.660799E-01
  4.661158E-01
  4.672740E-01
  4.675235E-01
  4.685930E-01
  4.684910E-01
  4.690981E-01
  4.686291E-01
  4.691352E-01
  4.688832E-01
  4.698228E-01
  4.700011E-01
  4.711231E-01
  4.710800E-01
  4.715897E-01
  4.707333E-01
  4.705236E-01
  4.693180E-01
  4.692681E-01
  4.686672E-01
  4.694193E-01
  4.660891E-01
  4.681230E-01
  4.678515E-01
  4.695082E-01
  4.684698E-01
  4.693038E-01
  4.676929E-01
  4.683629E-01
  4.669698E-01
  4.680781E-01
  4.671495E-01
  4.686173E-01
  4.679157E-01
  4.695288E-01
  4.689522E-01
  4.706764E-01
  4.701260E-01
  4.716762E-01
  4.706609E-01
  4.714558E-01
  4.695146E-01
  4.694253E-01
  4.668742E-01
  4.666181E-01
  4.643874E-01
  4.648452E-01
  4.635298E-01
  4.648863E-01
  4.642824E-01
  4.660846E-01
  4.656744E-01
  4.674861E-01
  4.669702E-01
  4.685921E-01
  4.677889E-01
  4.689969E-01
  4.676520E-01
  4.682494E-01
  4.663470E-01
  4.665925E-01
  4.646725E-01
  4.652877E-01
  4.640722E-01
  4.655738E-01
  4.652116E-01
  4.673155E-01
  4.671482E-01
  4.689970E-01
  4.682181E-01
  4.693093E-01
  4.678920E-01
  4.686921E-01
  4.674311E-01
  4.687543E-01
  4.681384E-01
  4.699090E-01
  4.692802E-01
  4.704939E-01
  4.689135E-01
  4.691176E-01
  4.668621E-01
  4.670097E-01
  4.653671E-01
  4.665868E-01
  4.676251E-01
  4.696201E-01
  4.684285E-01
  4.698234E-01
  4.678687E-01
  4.686310E-01
  4.664134E-01
  4.673706E-01
  4.657158E-01
  4.673877E-01
  4.663632E-01
  4.684301E-01
  4.675514E-01
  4.696130E-01
  4.687053E-01
  4.707805E-01
  4.698883E-01
  4.718570E-01
  4.706088E-01
  4.719295E-01
  4.698317E-01
  4.703063E-01
  4.676102E-01
  4.679226E-01
  4.655608E-01
  4.666172E-01
  4.652091E-01
  4.671846E-01
  4.664481E-01
  4.687222E-01
  4.678977E-01
  4.697848E-01
  4.684238E-01
  4.697834E-01
  4.680206E-01
  4.691497E-01
  4.673044E-01
  4.684370E-01
  4.666244E-01
  4.678019E-01
  4.660750E-01
  4.674274E-01
  4.659913E-01
  4.677199E-01
  4.666527E-01
  4.686197E-01
  4.675613E-01
  4.692862E-01
  4.678145E-01
  4.691144E-01
  4.673845E-01
  4.687133E-01
  4.673028E-01
  4.691166E-01
  4.681476E-01
  4.701507E-01
  4.690013E-01
  4.704843E-01
  4.686489E-01
  4.695326E-01
  4.674157E-01
  4.684506E-01
  4.668653E-01
  4.686076E-01
  4.645652E-01
  4.670594E-01
  4.662684E-01
  4.686101E-01
  4.672836E-01
  4.689634E-01
  4.671063E-01
  4.685424E-01
  4.667392E-01
  4.684234E-01
  4.669236E-01
  4.688702E-01
  4.675739E-01
  4.697039E-01
  4.686072E-01
  4.709304E-01
  4.699232E-01
  4.720983E-01
  4.706079E-01
  4.719734E-01
  4.694888E-01
  4.699162E-01
  4.668067E-01
  4.671006E-01
  4.643826E-01
  4.654739E-01
  4.637382E-01
  4.657589E-01
  4.647262E-01
  4.671577E-01
  4.662769E-01
  4.686843E-01
  4.676763E-01
  4.698784E-01
  4.685645E-01
  4.703266E-01
  4.684427E-01
  4.695769E-01
  4.671422E-01
  4.679579E-01
  4.655523E-01
  4.667695E-01
  4.650528E-01
  4.670714E-01
  4.660551E-01
  4.684850E-01
  4.674845E-01
  4.695428E-01
  4.679066E-01
  4.692712E-01
  4.671103E-01
  4.682942E-01
  4.663545E-01
  4.680704E-01
  4.667551E-01
  4.689159E-01
  4.676452E-01
  4.693762E-01
  4.673183E-01
  4.681808E-01
  4.655059E-01
  4.662597E-01
  4.640584E-01
  4.657237E-01
  4.665379E-01
  4.684902E-01
  4.672238E-01
  4.688877E-01
  4.671756E-01
  4.684260E-01
  4.665028E-01
  4.678234E-01
  4.662101E-01
  4.679470E-01
  4.667055E-01
  4.686785E-01
  4.675434E-01
  4.695735E-01
  4.685324E-01
  4.707113E-01
  4.697925E-01
  4.719207E-01
  4.706489E-01
  4.720968E-01
  4.699370E-01
  4.705242E-01
  4.677943E-01
  4.682890E-01
  4.659829E-01
  4.672968E-01
  4.659734E-01
  4.681746E-01
  4.674384E-01
  4.698286E-01
  4.689034E-01
  4.708390E-01
  4.693501E-01
  4.707606E-01
  4.688836E-01
  4.700743E-01
  4.681193E-01
  4.693202E-01
  4.674188E-01
  4.687039E-01
  4.669350E-01
  4.684254E-01
  4.669335E-01
  4.687254E-01
  4.674734E-01
  4.693514E-01
  4.679792E-01
  4.695517E-01
  4.677868E-01
  4.690237E-01
  4.671148E-01
  4.684674E-01
  4.669024E-01
  4.687024E-01
  4.675155E-01
  4.694701E-01
  4.681394E-01
  4.696875E-01
  4.678227E-01
  4.688939E-01
  4.667772E-01
  4.679108E-01
  4.661485E-01
  4.678018E-01
  4.639118E-01
  4.660025E-01
  4.654681E-01
  4.677590E-01
  4.670438E-01
  4.689141E-01
  4.677176E-01
  4.691880E-01
  4.677378E-01
  4.690945E-01
  4.676344E-01
  4.690625E-01
  4.677625E-01
  4.694563E-01
  4.685117E-01
  4.705680E-01
  4.698484E-01
  4.718351E-01
  4.706568E-01
  4.718272E-01
  4.696477E-01
  4.698993E-01
  4.671515E-01
  4.673538E-01
  4.650811E-01
  4.661279E-01
  4.648200E-01
  4.667066E-01
  4.659583E-01
  4.680955E-01
  4.673628E-01
  4.693924E-01
  4.685088E-01
  4.703547E-01
  4.692076E-01
  4.706561E-01
  4.689733E-01
  4.698250E-01
  4.676294E-01
  4.682118E-01
  4.660969E-01
  4.671140E-01
  4.656805E-01
  4.674402E-01
  4.666076E-01
  4.686701E-01
  4.677775E-01
  4.694588E-01
  4.679949E-01
  4.690969E-01
  4.672256E-01
  4.682165E-01
  4.665585E-01
  4.680026E-01
  4.668610E-01
  4.686695E-01
  4.675634E-01
  4.690118E-01
  4.672304E-01
  4.678998E-01
  4.655074E-01
  4.659661E-01
  4.638670E-01
  4.650561E-01
  4.662602E-01
  4.676411E-01
  4.667914E-01
  4.682106E-01
  4.672462E-01
  4.684765E-01
  4.673408E-01
  4.684807E-01
  4.673450E-01
  4.685393E-01
  4.674662E-01
  4.687151E-01
  4.677195E-01
  4.691246E-01
  4.683932E-01
  4.701259E-01
  4.696582E-01
  4.714253E-01
  4.706409E-01
  4.717390E-01
  4.700806E-01
  4.703537E-01
  4.681851E-01
  4.684349E-01
  4.667411E-01
  4.678137E-01
  4.670405E-01
  4.688740E-01
  4.685215E-01
  4.703759E-01
  4.697032E-01
  4.710333E-01
  4.697914E-01
  4.706383E-01
  4.690717E-01
  4.697622E-01
  4.681727E-01
  4.689241E-01
  4.674425E-01
  4.683377E-01
  4.670439E-01
  4.681764E-01
  4.671500E-01
  4.685287E-01
  4.676568E-01
  4.690403E-01
  4.680099E-01
  4.691190E-01
  4.677966E-01
  4.687098E-01
  4.673713E-01
  4.684658E-01
  4.674466E-01
  4.688820E-01
  4.680950E-01
  4.695577E-01
  4.685659E-01
  4.696415E-01
  4.681880E-01
  4.688559E-01
  4.671587E-01
  4.678082E-01
  4.663155E-01
  4.673302E-01
  4.639567E-01
  4.654777E-01
  4.653586E-01
  4.673104E-01
  4.672592E-01
  4.689653E-01
  4.684637E-01
  4.696379E-01
  4.686277E-01
  4.693927E-01
  4.681275E-01
  4.688341E-01
  4.677333E-01
  4.688174E-01
  4.682370E-01
  4.698458E-01
  4.696121E-01
  4.712221E-01
  4.705618E-01
  4.713711E-01
  4.697286E-01
  4.696498E-01
  4.674764E-01
  4.673765E-01
  4.656774E-01
  4.663771E-01
  4.655495E-01
  4.669584E-01
  4.665469E-01
  4.680804E-01
  4.676025E-01
  4.690023E-01
  4.683980E-01
  4.696714E-01
  4.688723E-01
  4.698137E-01
  4.685383E-01
  4.689422E-01
  4.672192E-01
  4.674216E-01
  4.658350E-01
  4.664950E-01
  4.655642E-01
  4.668941E-01
  4.664672E-01
  4.680179E-01
  4.675042E-01
  4.687261E-01
  4.677681E-01
  4.685759E-01
  4.673588E-01
  4.681332E-01
  4.671057E-01
  4.682151E-01
  4.675325E-01
  4.688421E-01
  4.680923E-01
  4.690254E-01
  4.676557E-01
  4.678895E-01
  4.659558E-01
  4.659544E-01
  4.642184E-01
  4.648233E-01
  4.666179E-01
  4.675178E-01
  4.669874E-01
  4.680073E-01
  4.674876E-01
  4.684243E-01
  4.677618E-01
  4.685355E-01
  4.677205E-01
  4.683722E-01
  4.674847E-01
  4.681431E-01
  4.673814E-01
  4.683133E-01
  4.679564E-01
  4.693371E-01
  4.693228E-01
  4.707758E-01
  4.704586E-01
  4.712510E-01
  4.700719E-01
  4.700517E-01
  4.683626E-01
  4.682936E-01
  4.670211E-01
  4.676867E-01
  4.672298E-01
  4.685541E-01
  4.684380E-01
  4.697406E-01
  4.693044E-01
  4.701188E-01
  4.691700E-01
  4.695612E-01
  4.683395E-01
  4.686172E-01
  4.674154E-01
  4.678077E-01
  4.667822E-01
  4.673911E-01
  4.666072E-01
  4.674617E-01
  4.668923E-01
  4.678847E-01
  4.673375E-01
  4.682258E-01
  4.674806E-01
  4.681504E-01
  4.672573E-01
  4.679226E-01
  4.671907E-01
  4.681403E-01
  4.677200E-01
  4.688947E-01
  4.685235E-01
  4.695395E-01
  4.688383E-01
  4.694403E-01
  4.683462E-01
  4.686642E-01
  4.674434E-01
  4.677980E-01
  4.667497E-01
  4.673667E-01
  4.646576E-01
  4.657713E-01
  4.658694E-01
  4.673266E-01
  4.674824E-01
  4.687284E-01
  4.684697E-01
  4.691910E-01
  4.683998E-01
  4.686807E-01
  4.676295E-01
  4.678956E-01
  4.670989E-01
  4.678537E-01
  4.676760E-01
  4.690171E-01
  4.692070E-01
  4.705444E-01
  4.702985E-01
  4.708355E-01
  4.696144E-01
  4.692605E-01
  4.674756E-01
  4.670268E-01
  4.656083E-01
  4.658396E-01
  4.651919E-01
  4.660771E-01
  4.658487E-01
  4.669161E-01
  4.667131E-01
  4.677453E-01
  4.674952E-01
  4.684460E-01
  4.680140E-01
  4.686309E-01
  4.677302E-01
  4.678454E-01
  4.665628E-01
  4.665531E-01
  4.654599E-01
  4.659020E-01
  4.653812E-01
  4.663421E-01
  4.661460E-01
  4.671775E-01
  4.668285E-01
  4.675794E-01
  4.669411E-01
  4.674950E-01
  4.668080E-01
  4.674639E-01
  4.669839E-01
  4.678721E-01
  4.675554E-01
  4.684526E-01
  4.679409E-01
  4.684464E-01
  4.674190E-01
  4.674109E-01
  4.660174E-01
  4.659105E-01
  4.647390E-01
  4.651418E-01
  4.676939E-01
  4.681671E-01
  4.678157E-01
  4.681727E-01
  4.677054E-01
  4.679579E-01
  4.674009E-01
  4.675812E-01
  4.669755E-01
  4.671426E-01
  4.665803E-01
  4.668763E-01
  4.665562E-01
  4.672153E-01
  4.673431E-01
  4.684438E-01
  4.688733E-01
  4.700007E-01
  4.701034E-01
  4.705761E-01
  4.698370E-01
  4.695000E-01
  4.682072E-01
  4.677211E-01
  4.667053E-01
  4.668149E-01
  4.665224E-01
  4.672783E-01
  4.674019E-01
  4.682776E-01
  4.682463E-01
  4.687758E-01
  4.683156E-01
  4.684359E-01
  4.676634E-01
  4.676131E-01
  4.668253E-01
  4.669031E-01
  4.663539E-01
  4.667311E-01
  4.664809E-01
  4.670907E-01
  4.669484E-01
  4.675081E-01
  4.671655E-01
  4.674308E-01
  4.667955E-01
  4.668789E-01
  4.662573E-01
  4.665747E-01
  4.663549E-01
  4.671241E-01
  4.672617E-01
  4.681747E-01
  4.681938E-01
  4.687675E-01
  4.683415E-01
  4.685077E-01
  4.678296E-01
  4.679500E-01
  4.674056E-01
  4.677569E-01
  4.674434E-01
  4.679523E-01
  4.660909E-01
  4.666443E-01
  4.669692E-01
  4.675377E-01
  4.677232E-01
  4.680303E-01
  4.678773E-01
  4.678211E-01
  4.673402E-01
  4.670586E-01
  4.665196E-01
  4.663930E-01
  4.662276E-01
  4.666420E-01
  4.670768E-01
  4.680037E-01
  4.687122E-01
  4.695635E-01
  4.698166E-01
  4.699025E-01
  4.692415E-01
  4.684769E-01
  4.672310E-01
  4.662752E-01
  4.652465E-01
  4.648199E-01
  4.644680E-01
  4.646992E-01
  4.648745E-01
  4.654683E-01
  4.658656E-01
  4.665771E-01
  4.669953E-01
  4.676012E-01
  4.677480E-01
  4.679147E-01
  4.675238E-01
  4.671878E-01
  4.664799E-01
  4.661139E-01
  4.656644E-01
  4.657405E-01
  4.657479E-01
  4.661343E-01
  4.662168E-01
  4.664564E-01
  4.662699E-01
  4.662544E-01
  4.659407E-01
  4.659772E-01
  4.658741E-01
  4.662046E-01
  4.663819E-01
  4.668926E-01
  4.670940E-01
  4.674585E-01
  4.673714E-01
  4.673686E-01
  4.669222E-01
  4.666590E-01
  4.661220E-01
  4.659668E-01
  4.657128E-01
  4.659458E-01
  4.693802E-01
  4.690919E-01
  4.690695E-01
  4.683222E-01
  4.679759E-01
  4.670760E-01
  4.667385E-01
  4.659707E-01
  4.658439E-01
  4.653304E-01
  4.654842E-01
  4.652768E-01
  4.657688E-01
  4.659297E-01
  4.667931E-01
  4.672692E-01
  4.683073E-01
  4.687340E-01
  4.694524E-01
  4.693115E-01
  4.693155E-01
  4.684721E-01
  4.679555E-01
  4.668997E-01
  4.665209E-01
  4.659010E-01
  4.661313E-01
  4.661379E-01
  4.668698E-01
  4.671563E-01
  4.679088E-01
  4.679769E-01
  4.683385E-01
  4.679403E-01
  4.678698E-01
  4.671739E-01
  4.670095E-01
  4.664440E-01
  4.665964E-01
  4.664436E-01
  4.669818E-01
  4.670648E-01
  4.676019E-01
  4.674269E-01
  4.675097E-01
  4.668149E-01
  4.664790E-01
  4.656167E-01
  4.654454E-01
  4.650578E-01
  4.655460E-01
  4.658118E-01
  4.667546E-01
  4.671488E-01
  4.678785E-01
  4.678200E-01
  4.680384E-01
  4.676015E-01
  4.677040E-01
  4.674352E-01
  4.678994E-01
  4.680251E-01
  4.687507E-01
  4.688956E-01
  4.678376E-01
  4.674569E-01
  4.681989E-01
  4.675545E-01
  4.679959E-01
  4.670712E-01
  4.672879E-01
  4.662106E-01
  4.663585E-01
  4.653145E-01
  4.656215E-01
  4.648771E-01
  4.656103E-01
  4.653648E-01
  4.665798E-01
  4.666926E-01
  4.680479E-01
  4.680276E-01
  4.689775E-01
  4.683422E-01
  4.685817E-01
  4.672825E-01
  4.670412E-01
  4.655390E-01
  4.653996E-01
  4.642594E-01
  4.646456E-01
  4.640833E-01
  4.650090E-01
  4.648942E-01
  4.661498E-01
  4.662277E-01
  4.675085E-01
  4.674094E-01
  4.683019E-01
  4.676526E-01
  4.679518E-01
  4.668271E-01
  4.669110E-01
  4.658898E-01
  4.663369E-01
  4.657785E-01
  4.665925E-01
  4.661569E-01
  4.668109E-01
  4.660160E-01
  4.662763E-01
  4.652265E-01
  4.654821E-01
  4.646901E-01
  4.653839E-01
  4.650753E-01
  4.661618E-01
  4.660606E-01
  4.671366E-01
  4.668342E-01
  4.675895E-01
  4.669409E-01
  4.674184E-01
  4.666319E-01
  4.671412E-01
  4.665338E-01
  4.673002E-01
  4.669335E-01
  4.709411E-01
  4.696827E-01
  4.700756E-01
  4.682038E-01
  4.682017E-01
  4.662041E-01
  4.663276E-01
  4.646418E-01
  4.651814E-01
  4.639427E-01
  4.649108E-01
  4.640579E-01
  4.653633E-01
  4.647998E-01
  4.663413E-01
  4.659425E-01
  4.675469E-01
  4.670769E-01
  4.684580E-01
  4.676255E-01
  4.685580E-01
  4.672766E-01
  4.678583E-01
  4.664075E-01
  4.670436E-01
  4.658593E-01
  4.669115E-01
  4.661959E-01
  4.676598E-01
  4.672006E-01
  4.686988E-01
  4.680324E-01
  4.691188E-01
  4.679274E-01
  4.685053E-01
  4.669591E-01
  4.674407E-01
  4.660933E-01
  4.670190E-01
  4.662310E-01
  4.676562E-01
  4.671392E-01
  4.684991E-01
  4.675735E-01
  4.682850E-01
  4.666599E-01
  4.668392E-01
  4.650281E-01
  4.654468E-01
  4.642502E-01
  4.654920E-01
  4.650981E-01
  4.669059E-01
  4.667091E-01
  4.683391E-01
  4.677065E-01
  4.688361E-01
  4.678358E-01
  4.688592E-01
  4.680285E-01
  4.693964E-01
  4.689111E-01
  4.704468E-01
  4.698364E-01
  4.689705E-01
  4.677937E-01
  4.688109E-01
  4.673705E-01
  4.681265E-01
  4.664833E-01
  4.671211E-01
  4.654437E-01
  4.661229E-01
  4.645624E-01
  4.654439E-01
  4.641778E-01
  4.654305E-01
  4.645655E-01
  4.661776E-01
  4.655558E-01
  4.672417E-01
  4.665080E-01
  4.679192E-01
  4.668021E-01
  4.677935E-01
  4.662969E-01
  4.670175E-01
  4.654052E-01
  4.661793E-01
  4.647693E-01
  4.658475E-01
  4.647878E-01
  4.662151E-01
  4.654692E-01
  4.671458E-01
  4.665473E-01
  4.682210E-01
  4.674266E-01
  4.687073E-01
  4.673868E-01
  4.681410E-01
  4.664567E-01
  4.671372E-01
  4.656978E-01
  4.668463E-01
  4.659091E-01
  4.673877E-01
  4.664728E-01
  4.676584E-01
  4.662566E-01
  4.669576E-01
  4.652619E-01
  4.659689E-01
  4.645770E-01
  4.657883E-01
  4.649570E-01
  4.666475E-01
  4.661207E-01
  4.679041E-01
  4.672714E-01
  4.687990E-01
  4.678320E-01
  4.690284E-01
  4.678095E-01
  4.688832E-01
  4.676763E-01
  4.688516E-01
  4.677559E-01
  4.714674E-01
  4.697998E-01
  4.701896E-01
  4.680604E-01
  4.682036E-01
  4.660735E-01
  4.664294E-01
  4.646521E-01
  4.654173E-01
  4.640385E-01
  4.651529E-01
  4.640633E-01
  4.654132E-01
  4.645154E-01
  4.660182E-01
  4.652303E-01
  4.667887E-01
  4.659901E-01
  4.674664E-01
  4.665227E-01
  4.678161E-01
  4.666904E-01
  4.678462E-01
  4.666638E-01
  4.678620E-01
  4.668142E-01
  4.682072E-01
  4.673632E-01
  4.689076E-01
  4.681025E-01
  4.695289E-01
  4.684360E-01
  4.694364E-01
  4.678592E-01
  4.684339E-01
  4.666152E-01
  4.672261E-01
  4.657456E-01
  4.669322E-01
  4.661195E-01
  4.678775E-01
  4.673646E-01
  4.690461E-01
  4.680845E-01
  4.690636E-01
  4.673467E-01
  4.677402E-01
  4.657832E-01
  4.663561E-01
  4.649485E-01
  4.662878E-01
  4.656585E-01
  4.675962E-01
  4.672647E-01
  4.691797E-01
  4.685816E-01
  4.701238E-01
  4.691931E-01
  4.705459E-01
  4.695941E-01
  4.710378E-01
  4.701764E-01
  4.715888E-01
  4.704946E-01
  4.688157E-01
  4.677498E-01
  4.684019E-01
  4.673473E-01
  4.679786E-01
  4.668870E-01
  4.674678E-01
  4.663075E-01
  4.668074E-01
  4.655837E-01
  4.660861E-01
  4.649746E-01
  4.657104E-01
  4.649180E-01
  4.659849E-01
  4.654517E-01
  4.666446E-01
  4.660859E-01
  4.671278E-01
  4.663484E-01
  4.671647E-01
  4.662103E-01
  4.669368E-01
  4.659862E-01
  4.667921E-01
  4.659604E-01
  4.668852E-01
  4.661465E-01
  4.671369E-01
  4.664534E-01
  4.675045E-01
  4.668788E-01
  4.679430E-01
  4.672283E-01
  4.680666E-01
  4.670153E-01
  4.675035E-01
  4.662267E-01
  4.667308E-01
  4.657437E-01
  4.667303E-01
  4.662489E-01
  4.675763E-01
  4.671442E-01
  4.682177E-01
  4.673323E-01
  4.679226E-01
  4.666876E-01
  4.671609E-01