# vtk DataFile Version 2.0
title
ASCII
DATASET STRUCTURED_GRID
DIMENSIONS   64   64    1
POINTS   4096  float
  0.000000E+00  0.000000E+00  0.000000E+00
  0.000000E+00  3.906250E-01  0.000000E+00
  0.000000E+00  7.812500E-01  0.000000E+00
  0.000000E+00  1.171875E+00  0.000000E+00
  0.000000E+00  1.562500E+00  0.000000E+00
  0.000000E+00  1.953125E+00  0.000000E+00
  0.000000E+00  2.343750E+00  0.000000E+00
  0.000000E+00  2.734375E+00  0.000000E+00
  0.000000E+00  3.125000E+00  0.000000E+00
  0.000000E+00  3.515625E+00  0.000000E+00
  0.000000E+00  3.906250E+00  0.000000E+00
  0.000000E+00  4.296875E+00  0.000000E+00
  0.000000E+00  4.687500E+00  0.000000E+00
  0.000000E+00  5.078125E+00  0.000000E+00
  0.000000E+00  5.468750E+00  0.000000E+00
  0.000000E+00  5.859375E+00  0.000000E+00
  0.000000E+00  6.250000E+00  0.000000E+00
  0.000000E+00  6.640625E+00  0.000000E+00
  0.000000E+00  7.031250E+00  0.000000E+00
  0.000000E+00  7.421875E+00  0.000000E+00
  0.000000E+00  7.812500E+00  0.000000E+00
  0.000000E+00  8.203125E+00  0.000000E+00
  0.000000E+00  8.593750E+00  0.000000E+00
  0.000000E+00  8.984375E+00  0.000000E+00
  0.000000E+00  9.375000E+00  0.000000E+00
  0.000000E+00  9.765625E+00  0.000000E+00
  0.000000E+00  1.015625E+01  0.000000E+00
  0.000000E+00  1.054688E+01  0.000000E+00
  0.000000E+00  1.093750E+01  0.000000E+00
  0.000000E+00  1.132812E+01  0.000000E+00
  0.000000E+00  1.171875E+01  0.000000E+00
  0.000000E+00  1.210938E+01  0.000000E+00
  0.000000E+00  1.250000E+01  0.000000E+00
  0.000000E+00  1.289062E+01  0.000000E+00
  0.000000E+00  1.328125E+01  0.000000E+00
  0.000000E+00  1.367188E+01  0.000000E+00
  0.000000E+00  1.406250E+01  0.000000E+00
  0.000000E+00  1.445312E+01  0.000000E+00
  0.000000E+00  1.484375E+01  0.000000E+00
  0.000000E+00  1.523438E+01  0.000000E+00
  0.000000E+00  1.562500E+01  0.000000E+00
  0.000000E+00  1.601562E+01  0.000000E+00
  0.000000E+00  1.640625E+01  0.000000E+00
  0.000000E+00  1.679688E+01  0.000000E+00
  0.000000E+00  1.718750E+01  0.000000E+00
  0.000000E+00  1.757812E+01  0.000000E+00
  0.000000E+00  1.796875E+01  0.000000E+00
  0.000000E+00  1.835938E+01  0.000000E+00
  0.000000E+00  1.875000E+01  0.000000E+00
  0.000000E+00  1.914062E+01  0.000000E+00
  0.000000E+00  1.953125E+01  0.000000E+00
  0.000000E+00  1.992188E+01  0.000000E+00
  0.000000E+00  2.031250E+01  0.000000E+00
  0.000000E+00  2.070312E+01  0.000000E+00
  0.000000E+00  2.109375E+01  0.000000E+00
  0.000000E+00  2.148438E+01  0.000000E+00
  0.000000E+00  2.187500E+01  0.000000E+00
  0.000000E+00  2.226562E+01  0.000000E+00
  0.000000E+00  2.265625E+01  0.000000E+00
  0.000000E+00  2.304688E+01  0.000000E+00
  0.000000E+00  2.343750E+01  0.000000E+00
  0.000000E+00  2.382812E+01  0.000000E+00
  0.000000E+00  2.421875E+01  0.000000E+00
  0.000000E+00  2.460938E+01  0.000000E+00
  3.906250E-01  0.000000E+00  0.000000E+00
  3.906250E-01  3.906250E-01  0.000000E+00
  3.906250E-01  7.812500E-01  0.000000E+00
  3.906250E-01  1.171875E+00  0.000000E+00
  3.906250E-01  1.562500E+00  0.000000E+00
  3.906250E-01  1.953125E+00  0.000000E+00
  3.906250E-01  2.343750E+00  0.000000E+00
  3.906250E-01  2.734375E+00  0.000000E+00
  3.906250E-01  3.125000E+00  0.000000E+00
  3.906250E-01  3.515625E+00  0.000000E+00
  3.906250E-01  3.906250E+00  0.000000E+00
  3.906250E-01  4.296875E+00  0.000000E+00
  3.906250E-01  4.687500E+00  0.000000E+00
  3.906250E-01  5.078125E+00  0.000000E+00
  3.906250E-01  5.468750E+00  0.000000E+00
  3.906250E-01  5.859375E+00  0.000000E+00
  3.906250E-01  6.250000E+00  0.000000E+00
  3.906250E-01  6.640625E+00  0.000000E+00
  3.906250E-01  7.031250E+00  0.000000E+00
  3.906250E-01  7.421875E+00  0.000000E+00
  3.906250E-01  7.812500E+00  0.000000E+00
  3.906250E-01  8.203125E+00  0.000000E+00
  3.906250E-01  8.593750E+00  0.000000E+00
  3.906250E-01  8.984375E+00  0.000000E+00
  3.906250E-01  9.375000E+00  0.000000E+00
  3.906250E-01  9.765625E+00  0.000000E+00
  3.906250E-01  1.015625E+01  0.000000E+00
  3.906250E-01  1.054688E+01  0.000000E+00
  3.906250E-01  1.093750E+01  0.000000E+00
  3.906250E-01  1.132812E+01  0.000000E+00
  3.906250E-01  1.171875E+01  0.000000E+00
  3.906250E-01  1.210938E+01  0.000000E+00
  3.906250E-01  1.250000E+01  0.000000E+00
  3.906250E-01  1.289062E+01  0.000000E+00
  3.906250E-01  1.328125E+01  0.000000E+00
  3.906250E-01  1.367188E+01  0.000000E+00
  3.906250E-01  1.406250E+01  0.000000E+00
  3.906250E-01  1.445312E+01  0.000000E+00
  3.906250E-01  1.484375E+01  0.000000E+00
  3.906250E-01  1.523438E+01  0.000000E+00
  3.906250E-01  1.562500E+01  0.000000E+00
  3.906250E-01  1.601562E+01  0.000000E+00
  3.906250E-01  1.640625E+01  0.000000E+00
  3.906250E-01  1.679688E+01  0.000000E+00
  3.906250E-01  1.718750E+01  0.000000E+00
  3.906250E-01  1.757812E+01  0.000000E+00
  3.906250E-01  1.796875E+01  0.000000E+00
  3.906250E-01  1.835938E+01  0.000000E+00
  3.906250E-01  1.875000E+01  0.000000E+00
  3.906250E-01  1.914062E+01  0.000000E+00
  3.906250E-01  1.953125E+01  0.000000E+00
  3.906250E-01  1.992188E+01  0.000000E+00
  3.906250E-01  2.031250E+01  0.000000E+00
  3.906250E-01  2.070312E+01  0.000000E+00
  3.906250E-01  2.109375E+01  0.000000E+00
  3.906250E-01  2.148438E+01  0.000000E+00
  3.906250E-01  2.187500E+01  0.000000E+00
  3.906250E-01  2.226562E+01  0.000000E+00
  3.906250E-01  2.265625E+01  0.000000E+00
  3.906250E-01  2.304688E+01  0.000000E+00
  3.906250E-01  2.343750E+01  0.000000E+00
  3.906250E-01  2.382812E+01  0.000000E+00
  3.906250E-01  2.421875E+01  0.000000E+00
  3.906250E-01  2.460938E+01  0.000000E+00
  7.812500E-01  0.000000E+00  0.000000E+00
  7.812500E-01  3.906250E-01  0.000000E+00
  7.812500E-01  7.812500E-01  0.000000E+00
  7.812500E-01  1.171875E+00  0.000000E+00
  7.812500E-01  1.562500E+00  0.000000E+00
  7.812500E-01  1.953125E+00  0.000000E+00
  7.812500E-01  2.343750E+00  0.000000E+00
  7.812500E-01  2.734375E+00  0.000000E+00
  7.812500E-01  3.125000E+00  0.000000E+00
  7.812500E-01  3.515625E+00  0.000000E+00
  7.812500E-01  3.906250E+00  0.000000E+00
  7.812500E-01  4.296875E+00  0.000000E+00
  7.812500E-01  4.687500E+00  0.000000E+00
  7.812500E-01  5.078125E+00  0.000000E+00
  7.812500E-01  5.468750E+00  0.000000E+00
  7.812500E-01  5.859375E+00  0.000000E+00
  7.812500E-01  6.250000E+00  0.000000E+00
  7.812500E-01  6.640625E+00  0.000000E+00
  7.812500E-01  7.031250E+00  0.000000E+00
  7.812500E-01  7.421875E+00  0.000000E+00
  7.812500E-01  7.812500E+00  0.000000E+00
  7.812500E-01  8.203125E+00  0.000000E+00
  7.812500E-01  8.593750E+00  0.000000E+00
  7.812500E-01  8.984375E+00  0.000000E+00
  7.812500E-01  9.375000E+00  0.000000E+00
  7.812500E-01  9.765625E+00  0.000000E+00
  7.812500E-01  1.015625E+01  0.000000E+00
  7.812500E-01  1.054688E+01  0.000000E+00
  7.812500E-01  1.093750E+01  0.000000E+00
  7.812500E-01  1.132812E+01  0.000000E+00
  7.812500E-01  1.171875E+01  0.000000E+00
  7.812500E-01  1.210938E+01  0.000000E+00
  7.812500E-01  1.250000E+01  0.000000E+00
  7.812500E-01  1.289062E+01  0.000000E+00
  7.812500E-01  1.328125E+01  0.000000E+00
  7.812500E-01  1.367188E+01  0.000000E+00
  7.812500E-01  1.406250E+01  0.000000E+00
  7.812500E-01  1.445312E+01  0.000000E+00
  7.812500E-01  1.484375E+01  0.000000E+00
  7.812500E-01  1.523438E+01  0.000000E+00
  7.812500E-01  1.562500E+01  0.000000E+00
  7.812500E-01  1.601562E+01  0.000000E+00
  7.812500E-01  1.640625E+01  0.000000E+00
  7.812500E-01  1.679688E+01  0.000000E+00
  7.812500E-01  1.718750E+01  0.000000E+00
  7.812500E-01  1.757812E+01  0.000000E+00
  7.812500E-01  1.796875E+01  0.000000E+00
  7.812500E-01  1.835938E+01  0.000000E+00
  7.812500E-01  1.875000E+01  0.000000E+00
  7.812500E-01  1.914062E+01  0.000000E+00
  7.812500E-01  1.953125E+01  0.000000E+00
  7.812500E-01  1.992188E+01  0.000000E+00
  7.812500E-01  2.031250E+01  0.000000E+00
  7.812500E-01  2.070312E+01  0.000000E+00
  7.812500E-01  2.109375E+01  0.000000E+00
  7.812500E-01  2.148438E+01  0.000000E+00
  7.812500E-01  2.187500E+01  0.000000E+00
  7.812500E-01  2.226562E+01  0.000000E+00
  7.812500E-01  2.265625E+01  0.000000E+00
  7.812500E-01  2.304688E+01  0.000000E+00
  7.812500E-01  2.343750E+01  0.000000E+00
  7.812500E-01  2.382812E+01  0.000000E+00
  7.812500E-01  2.421875E+01  0.000000E+00
  7.812500E-01  2.460938E+01  0.000000E+00
  1.171875E+00  0.000000E+00  0.000000E+00
  1.171875E+00  3.906250E-01  0.000000E+00
  1.171875E+00  7.812500E-01  0.000000E+00
  1.171875E+00  1.171875E+00  0.000000E+00
  1.171875E+00  1.562500E+00  0.000000E+00
  1.171875E+00  1.953125E+00  0.000000E+00
  1.171875E+00  2.343750E+00  0.000000E+00
  1.171875E+00  2.734375E+00  0.000000E+00
  1.171875E+00  3.125000E+00  0.000000E+00
  1.171875E+00  3.515625E+00  0.000000E+00
  1.171875E+00  3.906250E+00  0.000000E+00
  1.171875E+00  4.296875E+00  0.000000E+00
  1.171875E+00  4.687500E+00  0.000000E+00
  1.171875E+00  5.078125E+00  0.000000E+00
  1.171875E+00  5.468750E+00  0.000000E+00
  1.171875E+00  5.859375E+00  0.000000E+00
  1.171875E+00  6.250000E+00  0.000000E+00
  1.171875E+00  6.640625E+00  0.000000E+00
  1.171875E+00  7.031250E+00  0.000000E+00
  1.171875E+00  7.421875E+00  0.000000E+00
  1.171875E+00  7.812500E+00  0.000000E+00
  1.171875E+00  8.203125E+00  0.000000E+00
  1.171875E+00  8.593750E+00  0.000000E+00
  1.171875E+00  8.984375E+00  0.000000E+00
  1.171875E+00  9.375000E+00  0.000000E+00
  1.171875E+00  9.765625E+00  0.000000E+00
  1.171875E+00  1.015625E+01  0.000000E+00
  1.171875E+00  1.054688E+01  0.000000E+00
  1.171875E+00  1.093750E+01  0.000000E+00
  1.171875E+00  1.132812E+01  0.000000E+00
  1.171875E+00  1.171875E+01  0.000000E+00
  1.171875E+00  1.210938E+01  0.000000E+00
  1.171875E+00  1.250000E+01  0.000000E+00
  1.171875E+00  1.289062E+01  0.000000E+00
  1.171875E+00  1.328125E+01  0.000000E+00
  1.171875E+00  1.367188E+01  0.000000E+00
  1.171875E+00  1.406250E+01  0.000000E+00
  1.171875E+00  1.445312E+01  0.000000E+00
[...]
POINT_DATA   4096
SCALARS CON  float  1
LOOKUP_TABLE default
  4.695416E-01
  4.683672E-01
  4.705827E-01
  4.691590E-01
  4.709020E-01
  4.689618E-01
  4.703078E-01
  4.681812E-01
  4.695548E-01
  4.676111E-01
  4.692469E-01
  4.675883E-01
  4.695066E-01
  4.681179E-01
  4.702732E-01
  4.690420E-01
  4.712082E-01
  4.697816E-01
  4.715287E-01
  4.695071E-01
  4.705946E-01
  4.679941E-01
  4.687170E-01
  4.660441E-01
  4.669847E-01
  4.647424E-01
  4.662062E-01
  4.644607E-01
  4.663165E-01
  4.648384E-01
  4.668651E-01
  4.655076E-01
  4.676340E-01
  4.663457E-01
  4.684656E-01
  4.670397E-01
  4.688614E-01
  4.670018E-01
  4.683395E-01
  4.660720E-01
  4.672064E-01
  4.650262E-01
  4.665492E-01
  4.649829E-01
  4.671972E-01
  4.662200E-01
  4.687631E-01
  4.677692E-01
  4.699714E-01
  4.684390E-01
  4.700972E-01
  4.682044E-01
  4.697982E-01
  4.681244E-01
  4.700846E-01
  4.687210E-01
  4.707528E-01
  4.691455E-01
  4.706872E-01
  4.685330E-01
  4.697003E-01
  4.675121E-01
  4.690168E-01
  4.674170E-01
  4.712673E-01
  4.704624E-01
  4.715440E-01
  4.701981E-01
  4.706721E-01
  4.688574E-01
  4.691517E-01
  4.674882E-01
  4.681943E-01
  4.670636E-01
  4.682788E-01
  4.675392E-01
  4.690055E-01
  4.684090E-01
  4.699542E-01
  4.693882E-01
  4.708873E-01
  4.701438E-01
  4.712923E-01
  4.700347E-01
  4.705839E-01
  4.687737E-01
  4.689598E-01
  4.670788E-01
  4.675107E-01
  4.661270E-01
  4.671731E-01
  4.663602E-01
  4.677971E-01
  4.671218E-01
  4.684504E-01
  4.674972E-01
  4.684915E-01
  4.672550E-01
  4.680827E-01
  4.668030E-01
  4.676677E-01
  4.664413E-01
  4.673268E-01
  4.660824E-01
  4.669512E-01
  4.657576E-01
  4.667999E-01
  4.659112E-01
  4.673367E-01
  4.668083E-01
  4.684613E-01
  4.679580E-01
  4.694399E-01
  4.686538E-01
  4.698711E-01
  4.689561E-01
  4.702297E-01
  4.695114E-01
  4.709997E-01
  4.703697E-01
  4.717238E-01
  4.707402E-01
  4.716301E-01
  4.702434E-01
  4.709503E-01
  4.696739E-01
  4.707333E-01
  4.698921E-01
  4.681663E-01
  4.685255E-01
  4.693927E-01
  4.695264E-01
  4.698721E-01
  4.694026E-01
  4.692713E-01
  4.685770E-01
  4.684898E-01
  4.680385E-01
  4.682895E-01
  4.681847E-01
  4.687456E-01
  4.689019E-01
  4.696668E-01
  4.699393E-01
  4.706748E-01
  4.707110E-01
  4.709751E-01
  4.703428E-01
  4.698525E-01
  4.685400E-01
  4.676045E-01
  4.661896E-01
  4.655137E-01
  4.646467E-01
  4.646694E-01
  4.644983E-01
  4.650933E-01
  4.653113E-01
  4.661138E-01
  4.663955E-01
  4.671577E-01
  4.673122E-01
  4.678508E-01
  4.676676E-01
  4.677580E-01
  4.670642E-01
  4.666780E-01
  4.656654E-01
  4.652309E-01
  4.644998E-01
  4.646527E-01
  4.647033E-01
  4.656563E-01
  4.663323E-01
  4.675840E-01
  4.681714E-01
  4.690034E-01
  4.690005E-01
  4.692846E-01
  4.689656E-01
  4.692565E-01
  4.692192E-01
  4.698935E-01
  4.701112E-01
  4.707241E-01
  4.705056E-01
  4.704150E-01
  4.694638E-01
  4.688858E-01
  4.678886E-01
  4.677390E-01
  4.674982E-01
  4.695190E-01
  4.702571E-01
  4.699603E-01
  4.701866E-01
  4.692641E-01
  4.689757E-01
  4.678270E-01
  4.676672E-01
  4.669433E-01
  4.673591E-01
  4.671981E-01
  4.680482E-01
  4.681559E-01
  4.691386E-01
  4.692949E-01
  4.702695E-01
  4.703404E-01
  4.710964E-01
  4.707657E-01
  4.709395E-01
  4.699251E-01
  4.694583E-01
  4.680110E-01
  4.674457E-01
  4.662752E-01
  4.662992E-01
  4.658825E-01
  4.666376E-01
  4.667606E-01
  4.677609E-01
  4.678205E-01
  4.685166E-01
  4.681498E-01
  4.684223E-01
  4.677255E-01
  4.677981E-01
  4.670163E-01
  4.670759E-01
  4.663154E-01
  4.664218E-01
  4.657576E-01
  4.660484E-01
  4.656793E-01
  4.663548E-01
  4.663880E-01
  4.673814E-01
  4.675561E-01
  4.684763E-01
  4.684034E-01
  4.690118E-01
  4.687009E-01
  4.692510E-01
  4.690844E-01
  4.699049E-01
  4.699864E-01
  4.708756E-01
  4.707533E-01
  4.711855E-01
  4.704871E-01
  4.704226E-01
  4.694887E-01
  4.695371E-01
  4.690146E-01
  4.696016E-01
  4.662637E-01
  4.679726E-01
  4.676212E-01
  4.691621E-01
  4.683217E-01
  4.692647E-01
  4.679327E-01
  4.686301E-01
  4.673274E-01
  4.682646E-01
  4.673062E-01
  4.685981E-01
  4.679525E-01
  4.695003E-01
  4.690466E-01
  4.706943E-01
  4.701909E-01
  4.715736E-01
  4.705559E-01
  4.712096E-01
  4.693640E-01
  4.692640E-01
  4.669185E-01
  4.666983E-01
  4.646414E-01
  4.650436E-01
  4.637920E-01
  4.650084E-01
  4.644368E-01
  4.661202E-01
  4.657914E-01
  4.675264E-01
  4.671007E-01
  4.686172E-01
  4.678577E-01
  4.689274E-01
  4.676323E-01
  4.681429E-01
  4.663708E-01
  4.666074E-01
  4.648614E-01
  4.654573E-01
  4.643506E-01
  4.657307E-01
  4.653682E-01
  4.672693E-01
  4.670791E-01
  4.687782E-01
  4.680990E-01
  4.691990E-01
  4.680202E-01
  4.688889E-01
  4.678096E-01
  4.690352E-01
  4.683831E-01
  4.698761E-01
  4.691532E-01
  4.701910E-01
  4.687453E-01
  4.690360E-01
  4.670955E-01
  4.673424E-01
  4.658468E-01
  4.668857E-01
  4.677043E-01
  4.694337E-01
  4.682333E-01
  4.695572E-01
  4.678273E-01
  4.686971E-01
  4.667529E-01
  4.677179E-01
  4.661357E-01
  4.676051E-01
  4.665248E-01
  4.683884E-01
  4.675603E-01
  4.695601E-01
  4.687968E-01
  4.708077E-01
  4.699708E-01
  4.717585E-01
  4.704938E-01
  4.716528E-01
  4.696470E-01
  4.701121E-01
  4.676406E-01
  4.680067E-01
  4.658465E-01
  4.668638E-01
  4.655324E-01
  4.673533E-01
  4.666184E-01
  4.687180E-01
  4.679276E-01
  4.697067E-01
  4.684522E-01
  4.697529E-01
  4.681039E-01
  4.691405E-01
  4.673552E-01
  4.683528E-01
  4.665944E-01
  4.676725E-01
  4.660579E-01
  4.673580E-01
  4.660408E-01
  4.676759E-01
  4.666583E-01
  4.684731E-01
  4.674551E-01
  4.690863E-01
  4.677678E-01
  4.690986E-01
  4.676046E-01
  4.689639E-01
  4.676977E-01
  4.693899E-01
  4.684114E-01
  4.702003E-01
  4.690483E-01
  4.704209E-01
  4.687391E-01
  4.696529E-01
  4.677513E-01
  4.687664E-01
  4.672476E-01
  4.687779E-01
  4.647405E-01
  4.669965E-01
  4.661386E-01
  4.683898E-01
  4.672038E-01
  4.689680E-01
  4.673203E-01
  4.687831E-01
  4.670446E-01
  4.686002E-01
  4.670716E-01
  4.688898E-01
  4.676370E-01
  4.697249E-01
  4.687120E-01
  4.709595E-01
  4.699472E-01
  4.719560E-01
  4.704268E-01
  4.716809E-01
  4.692884E-01
  4.697608E-01
  4.668617E-01
  4.672334E-01
  4.646640E-01
  4.657075E-01
  4.639856E-01
  4.658669E-01
  4.648254E-01
  4.671549E-01
  4.663265E-01
  4.686744E-01
  4.677170E-01
  4.698164E-01
  4.684968E-01
  4.701243E-01
  4.682526E-01
  4.693197E-01
  4.669886E-01
  4.678147E-01
  4.655445E-01
  4.667459E-01
  4.650916E-01
  4.670033E-01
  4.659738E-01
  4.682643E-01
  4.672755E-01
  4.692753E-01
  4.677708E-01
  4.692048E-01
  4.672729E-01
  4.685558E-01
  4.667862E-01
  4.684619E-01
  4.671373E-01
  4.691007E-01
  4.677466E-01
  4.693214E-01
  4.673217E-01
  4.682100E-01
  4.657343E-01
  4.665468E-01
  4.644492E-01
  4.659880E-01
  4.665945E-01
  4.684384E-01
  4.671202E-01
  4.687688E-01
  4.671315E-01
  4.684725E-01
  4.666591E-01
  4.680154E-01
  4.663923E-01
  4.680406E-01
  4.667235E-01
  4.686315E-01
  4.675145E-01
  4.695835E-01
  4.686086E-01
  4.707856E-01
  4.698234E-01
  4.718339E-01
  4.704666E-01
  4.718461E-01
  4.697267E-01
  4.704096E-01
  4.678408E-01
  4.684592E-01
  4.662433E-01
  4.675451E-01
  4.661656E-01
  4.682466E-01
  4.674112E-01
  4.697038E-01
  4.687473E-01
  4.706683E-01
  4.692168E-01
  4.706467E-01
  4.688002E-01
  4.699733E-01
  4.680047E-01
  4.691619E-01
  4.672539E-01
  4.685316E-01
  4.668010E-01
  4.683102E-01
  4.668463E-01
  4.686134E-01
  4.673355E-01
  4.691573E-01
  4.677756E-01
  4.693600E-01
  4.676847E-01
  4.690263E-01
  4.672559E-01
  4.686962E-01
  4.671903E-01
  4.689637E-01
  4.677271E-01
  4.695887E-01
  4.682034E-01
  4.697101E-01
  4.678735E-01
  4.689826E-01
  4.669379E-01
  4.680996E-01
  4.663473E-01
  4.679359E-01
  4.640758E-01
  4.661095E-01
  4.654349E-01
  4.676921E-01
  4.669191E-01
  4.688490E-01
  4.676525E-01
  4.691844E-01
  4.676948E-01
  4.690706E-01
  4.675625E-01
  4.690464E-01
  4.677586E-01
  4.695494E-01
  4.686014E-01
  4.706747E-01
  4.698386E-01
  4.717520E-01
  4.704416E-01
  4.716174E-01
  4.694524E-01
  4.698621E-01
  4.672192E-01
  4.675651E-01
  4.652830E-01
  4.663091E-01
  4.648478E-01
  4.666477E-01
  4.657764E-01
  4.679265E-01
  4.671827E-01
  4.692932E-01
  4.683948E-01
  4.702589E-01
  4.690194E-01
  4.704432E-01
  4.686895E-01
  4.695972E-01
  4.674339E-01
  4.681506E-01
  4.660864E-01
  4.671888E-01
  4.657108E-01
  4.674520E-01
  4.664993E-01
  4.685189E-01
  4.675373E-01
  4.692508E-01
  4.677965E-01
  4.690280E-01
  4.672372E-01
  4.683798E-01
  4.667630E-01
  4.682615E-01
  4.670289E-01
  4.687657E-01
  4.674940E-01
  4.688792E-01
  4.670259E-01
  4.677785E-01
  4.654574E-01
  4.660822E-01
  4.640439E-01
  4.653013E-01
  4.663418E-01
  4.677657E-01
  4.668016E-01
  4.682342E-01
  4.671615E-01
  4.684338E-01
  4.672173E-01
  4.684074E-01
  4.671812E-01
  4.684190E-01
  4.672777E-01
  4.686311E-01
  4.676471E-01
  4.692123E-01
  4.684825E-01
  4.702886E-01
  4.696905E-01
  4.714158E-01
  4.704635E-01
  4.715847E-01
  4.698987E-01
  4.703445E-01
  4.682353E-01
  4.686406E-01
  4.668926E-01
  4.679608E-01
  4.669933E-01
  4.687536E-01
  4.682261E-01
  4.700967E-01
  4.693686E-01
  4.708214E-01
  4.695870E-01
  4.705657E-01
  4.689719E-01
  4.697395E-01
  4.680755E-01
  4.688850E-01
  4.673434E-01
  4.683319E-01
  4.670098E-01
  4.682408E-01
  4.671551E-01
  4.685742E-01
  4.675836E-01
  4.689754E-01
  4.678389E-01
  4.690110E-01
  4.676571E-01
  4.686969E-01
  4.673531E-01
  4.685526E-01
  4.674678E-01
  4.689329E-01
  4.680176E-01
  4.694797E-01
  4.683682E-01
  4.694844E-01
  4.679712E-01
  4.687437E-01
  4.670419E-01
  4.678309E-01
  4.663396E-01
  4.674666E-01
  4.641796E-01
  4.657241E-01
  4.654496E-01
  4.673535E-01
  4.671335E-01
  4.688223E-01
  4.682037E-01
  4.694161E-01
  4.683431E-01
  4.692038E-01
  4.679402E-01
  4.688060E-01
  4.677480E-01
  4.689845E-01
  4.683784E-01
  4.700212E-01
  4.696333E-01
  4.711914E-01
  4.703744E-01
  4.712203E-01
  4.695658E-01
  4.696601E-01
  4.675381E-01
  4.675670E-01
  4.657827E-01
  4.664419E-01
  4.654035E-01
  4.667464E-01
  4.662081E-01
  4.678273E-01
  4.673702E-01
  4.689347E-01
  4.683347E-01
  4.696831E-01
  4.687827E-01
  4.697376E-01
  4.683762E-01
  4.688758E-01
  4.671712E-01
  4.675421E-01
  4.659788E-01
  4.667415E-01
  4.657250E-01
  4.670475E-01
  4.664606E-01
  4.679828E-01
  4.673384E-01
  4.685942E-01
  4.675800E-01
  4.684898E-01
  4.672629E-01
  4.681528E-01
  4.670894E-01
  4.682498E-01
  4.674427E-01
  4.687181E-01
  4.677955E-01
  4.687098E-01
  4.672534E-01
  4.676051E-01
  4.657303E-01
  4.659529E-01
  4.643056E-01
  4.650785E-01
  4.667600E-01
  4.676999E-01
  4.671020E-01
  4.680850E-01
  4.674470E-01
  4.683327E-01
  4.675713E-01
  4.683346E-01
  4.674721E-01
  4.681724E-01
  4.673044E-01
  4.680811E-01
  4.673931E-01
  4.684546E-01
  4.681192E-01
  4.695179E-01
  4.693897E-01
  4.707573E-01
  4.703035E-01
  4.710834E-01
  4.699058E-01
  4.700126E-01
  4.684005E-01
  4.684348E-01
  4.671283E-01
  4.677507E-01
  4.671422E-01
  4.683818E-01
  4.681601E-01
  4.694867E-01
  4.690703E-01
  4.700066E-01
  4.691216E-01
  4.696217E-01
  4.684114E-01
  4.687342E-01
  4.674946E-01
  4.679125E-01
  4.668586E-01
  4.675163E-01
  4.667200E-01
  4.676155E-01
  4.669988E-01
  4.679827E-01
  4.673461E-01
  4.682115E-01
  4.673982E-01
  4.680927E-01
  4.671833E-01
  4.679045E-01
  4.671517E-01
  4.681184E-01
  4.676217E-01
  4.687661E-01
  4.682993E-01
  4.693015E-01
  4.685490E-01
  4.691932E-01
  4.681003E-01
  4.685021E-01
  4.673143E-01
  4.677766E-01
  4.667752E-01
  4.674952E-01
  4.648958E-01
  4.659643E-01
  4.660043E-01
  4.673527E-01
  4.674231E-01
  4.685685E-01
  4.682622E-01
  4.689428E-01
  4.681791E-01
  4.685013E-01
  4.675536E-01
  4.679136E-01
  4.672310E-01
  4.680361E-01
  4.678770E-01
  4.691432E-01
  4.692354E-01
  4.704331E-01
  4.701053E-01
  4.705991E-01
  4.694400E-01
  4.691774E-01
  4.675232E-01
  4.671385E-01
  4.657402E-01
  4.658934E-01
  4.651594E-01
  4.659461E-01
  4.657047E-01
  4.668015E-01
  4.667031E-01
  4.678144E-01
  4.676308E-01
  4.685620E-01
  4.680941E-01
  4.686408E-01
  4.677302E-01
  4.678596E-01
  4.666614E-01
  4.667190E-01
  4.656943E-01
  4.661263E-01
  4.655707E-01
  4.664358E-01
  4.661668E-01
  4.671170E-01
  4.667459E-01
  4.674772E-01
  4.668675E-01
  4.674305E-01
  4.667780E-01
  4.674301E-01
  4.669572E-01
  4.678041E-01
  4.674540E-01
  4.682788E-01
  4.677270E-01
  4.681893E-01
  4.671878E-01
  4.672254E-01
  4.659444E-01
  4.659397E-01
  4.648874E-01
  4.653464E-01
  4.677692E-01
  4.681879E-01
  4.678849E-01
  4.681672E-01
  4.677206E-01
  4.678779E-01
  4.673388E-01
  4.674414E-01
  4.668875E-01
  4.670216E-01
  4.665600E-01
  4.668663E-01
  4.666700E-01
  4.673256E-01
  4.675172E-01
  4.685163E-01
  4.689031E-01
  4.698562E-01
  4.699134E-01
  4.702897E-01
  4.696393E-01
  4.693456E-01
  4.682326E-01
  4.677997E-01
  4.668958E-01
  4.669483E-01
  4.666638E-01
  4.673038E-01
  4.674352E-01
  4.682407E-01
  4.682803E-01
  4.687920E-01
  4.684278E-01
  4.685267E-01
  4.678280E-01
  4.677290E-01
  4.669938E-01
  4.670119E-01
  4.665112E-01
  4.668239E-01
  4.666097E-01
  4.671335E-01
  4.670036E-01
  4.674643E-01
  4.671436E-01
  4.673457E-01
  4.667851E-01
  4.668551E-01
  4.663317E-01
  4.666182E-01
  4.664409E-01
  4.671063E-01
  4.672276E-01
  4.680200E-01
  4.680594E-01
  4.685904E-01
  4.682733E-01
  4.684611E-01
  4.679082E-01
  4.680174E-01
  4.675375E-01
  4.678195E-01
  4.675385E-01
  4.679773E-01
  4.661729E-01
  4.666077E-01
  4.669714E-01
  4.674447E-01
  4.676879E-01
  4.679109E-01
  4.678240E-01
  4.676990E-01
  4.673129E-01
  4.670015E-01
  4.665945E-01
  4.664564E-01
  4.664076E-01
  4.667572E-01
  4.672262E-01
  4.679971E-01
  4.686674E-01
  4.693353E-01
  4.695834E-01
  4.695777E-01
  4.690397E-01
  4.683095E-01
  4.672688E-01
  4.663584E-01
  4.654757E-01
  4.649949E-01
  4.646948E-01
  4.648220E-01
  4.650552E-01
  4.655862E-01
  4.660777E-01
  4.667231E-01
  4.671858E-01
  4.676554E-01
  4.677993E-01
  4.678395E-01
  4.675155E-01
  4.671514E-01
  4.665880E-01
  4.662104E-01
  4.658524E-01
  4.658209E-01
  4.658285E-01
  4.660642E-01
  4.661688E-01
  4.663301E-01
  4.662521E-01
  4.662202E-01
  4.660306E-01
  4.660218E-01
  4.659893E-01
  4.662228E-01
  4.664402E-01
  4.668510E-01
  4.671136E-01
  4.674131E-01
  4.674252E-01
  4.673899E-01
  4.670622E-01
  4.667665E-01
  4.663260E-01
  4.660973E-01
  4.658900E-01
  4.660058E-01
  4.692390E-01
  4.688803E-01
  4.689554E-01
  4.682096E-01
  4.679852E-01
  4.670721E-01
  4.668208E-01
  4.660019E-01
  4.659335E-01
  4.653561E-01
  4.655694E-01
  4.653069E-01
  4.658649E-01
  4.659638E-01
  4.668655E-01
  4.672329E-01
  4.682576E-01
  4.685420E-01
  4.692539E-01
  4.690280E-01
  4.691237E-01
  4.683067E-01
  4.679712E-01
  4.669824E-01
  4.667682E-01
  4.661526E-01
  4.664622E-01
  4.663892E-01
  4.671338E-01
  4.672981E-01
  4.680446E-01
  4.679933E-01
  4.683713E-01
  4.678928E-01
  4.678869E-01
  4.671566E-01
  4.670873E-01
  4.664914E-01
  4.667133E-01
  4.664809E-01
  4.670310E-01
  4.669888E-01
  4.675239E-01
  4.672534E-01
  4.674052E-01
  4.667093E-01
  4.665291E-01
  4.657114E-01
  4.656785E-01
  4.652549E-01
  4.657629E-01
  4.658795E-01
  4.667796E-01
  4.670420E-01
  4.678246E-01
  4.677745E-01
  4.681763E-01
  4.678149E-01
  4.680743E-01
  4.677670E-01
  4.682283E-01
  4.681678E-01
  4.688057E-01
  4.687659E-01
  4.676978E-01
  4.672531E-01
  4.680240E-01
  4.674128E-01
  4.679451E-01
  4.670686E-01
  4.673534E-01
  4.662860E-01
  4.664691E-01
  4.654164E-01
  4.657499E-01
  4.649864E-01
  4.657247E-01
  4.654272E-01
  4.666105E-01
  4.666416E-01
  4.679521E-01
  4.678587E-01
  4.687957E-01
  4.681409E-01
  4.684369E-01
  4.671909E-01
  4.670640E-01
  4.656409E-01
  4.656016E-01
  4.644925E-01
  4.649162E-01
  4.643291E-01
  4.652535E-01
  4.650872E-01
  4.663128E-01
  4.662989E-01
  4.675056E-01
  4.672913E-01
  4.681335E-01
  4.674495E-01
  4.678152E-01
  4.667632E-01
  4.669632E-01
  4.659812E-01
  4.664414E-01
  4.657986E-01
  4.665413E-01
  4.660175E-01
  4.666799E-01
  4.659231E-01
  4.663072E-01
  4.653503E-01
  4.657041E-01
  4.649148E-01
  4.655938E-01
  4.651976E-01
  4.662318E-01
  4.660648E-01
  4.671538E-01
  4.668674E-01
  4.677069E-01
  4.671139E-01
  4.676718E-01
  4.668916E-01
  4.673959E-01
  4.666948E-01
  4.673706E-01
  4.668674E-01
  4.706322E-01
  4.694130E-01
  4.698439E-01
  4.681231E-01
  4.682077E-01
  4.663469E-01
  4.664981E-01
  4.648707E-01
  4.653626E-01
  4.641243E-01
  4.650104E-01
  4.641474E-01
  4.653795E-01
  4.648255E-01
  4.663149E-01
  4.659399E-01
  4.674956E-01
  4.670446E-01
  4.683727E-01
  4.675660E-01
  4.684689E-01
  4.672519E-01
  4.678487E-01
  4.664993E-01
  4.671674E-01
  4.660740E-01
  4.671188E-01
  4.664304E-01
  4.678094E-01
  4.673013E-01
  4.686592E-01
  4.679274E-01
  4.689062E-01
  4.677278E-01
  4.683027E-01
  4.668684E-01
  4.674076E-01
  4.661732E-01
  4.670964E-01
  4.663205E-01
  4.676370E-01
  4.670599E-01
  4.683027E-01
  4.673814E-01
  4.680969E-01
  4.666159E-01
  4.669093E-01
  4.652811E-01
  4.657624E-01
  4.646192E-01
  4.657578E-01
  4.652716E-01
  4.669017E-01
  4.666362E-01
  4.682015E-01
  4.676608E-01
  4.688739E-01
  4.680450E-01
  4.691307E-01
  4.683556E-01
  4.696167E-01
  4.690255E-01
  4.703577E-01
  4.696406E-01
  4.687589E-01
  4.676440E-01
  4.686064E-01
  4.673260E-01
  4.680922E-01
  4.666224E-01
  4.672372E-01
  4.656758E-01
  4.662751E-01
  4.647885E-01
  4.655631E-01
  4.643520E-01
  4.654825E-01
  4.646629E-01
  4.661553E-01
  4.655967E-01
  4.671913E-01
  4.665483E-01
  4.678842E-01
  4.668598E-01
  4.677700E-01
  4.663619E-01
  4.670038E-01
  4.654871E-01
  4.661879E-01
  4.648719E-01
  4.658681E-01
  4.648900E-01
  4.662199E-01
  4.655329E-01
  4.670778E-01
  4.664955E-01
  4.680030E-01
  4.672242E-01
  4.683919E-01
  4.671914E-01
  4.679559E-01
  4.664823E-01
  4.671857E-01
  4.658775E-01
  4.669063E-01
  4.659567E-01
  4.672373E-01
  4.663344E-01
  4.674399E-01
  4.662099E-01
  4.669631E-01
  4.654904E-01
  4.662042E-01
  4.649186E-01
  4.659988E-01
  4.651642E-01
  4.666713E-01
  4.661484E-01
  4.677979E-01
  4.672373E-01
  4.686980E-01
  4.678558E-01
  4.690140E-01
  4.679165E-01
  4.689132E-01
  4.677606E-01
  4.687853E-01
  4.676945E-01
  4.711932E-01
  4.696589E-01
  4.700120E-01
  4.680955E-01
  4.682357E-01
  4.663017E-01
  4.665994E-01
  4.649451E-01
  4.655814E-01
  4.642714E-01
  4.652258E-01
  4.641980E-01
  4.654023E-01
  4.645971E-01
  4.659932E-01
  4.653339E-01
  4.668085E-01
  4.661413E-01
  4.675161E-01
  4.666725E-01
  4.678310E-01
  4.667817E-01
  4.677959E-01
  4.667007E-01
  4.677792E-01
  4.668407E-01
  4.681249E-01
  4.673812E-01
  4.687866E-01
  4.680400E-01
  4.692924E-01
  4.682514E-01
  4.691143E-01
  4.676678E-01
  4.682067E-01
  4.666088E-01
  4.672274E-01
  4.659429E-01
  4.670455E-01
  4.662970E-01
  4.678424E-01
  4.673134E-01
  4.687811E-01
  4.678859E-01
  4.687930E-01
  4.672980E-01
  4.677367E-01
  4.660408E-01
  4.666065E-01
  4.653335E-01
  4.665062E-01
  4.658686E-01
  4.675552E-01
  4.672097E-01
  4.689409E-01
  4.684413E-01
  4.699178E-01
  4.691704E-01
  4.704832E-01
  4.696773E-01
  4.709983E-01
  4.701893E-01
  4.714131E-01
  4.703600E-01
  4.687257E-01
  4.677450E-01
  4.683073E-01
  4.673828E-01
  4.679615E-01
  4.670096E-01
  4.675194E-01
  4.664684E-01
  4.668734E-01
  4.657496E-01
  4.661570E-01
  4.651430E-01
  4.657723E-01
  4.650611E-01
  4.660121E-01
  4.655668E-01
  4.666650E-01
  4.662178E-01
  4.671757E-01
  4.664974E-01
  4.672010E-01
  4.663118E-01
  4.668945E-01
  4.659901E-01
  4.666477E-01
  4.658725E-01
  4.666743E-01
  4.660298E-01
  4.669380E-01
  4.663775E-01
  4.673489E-01
  4.668195E-01
  4.677641E-01
  4.671220E-01
  4.678600E-01
  4.669484E-01
  4.674258E-01
  4.663537E-01
  4.668438E-01
  4.659758E-01
  4.668077E-01
  4.663088E-01
  4.674102E-01
  4.669878E-01
  4.679493E-01
  4.672238E-01
  4.678258E-01
  4.668030E-01
  4.672601E-01