# vtk DataFile Version 2.0
title
ASCII
DATASET STRUCTURED_GRID
DIMENSIONS   64   64    1
POINTS   4096  float
  0.000000E+00  0.000000E+00  0.000000E+00
  0.000000E+00  3.906250E-01  0.000000E+00
  0.000000E+00  7.812500E-01  0.000000E+00
  0.000000E+00  1.171875E+00  0.000000E+00
  0.000000E+00  1.562500E+00  0.000000E+00
  0.000000E+00  1.953125E+00  0.000000E+00
  0.000000E+00  2.343750E+00  0.000000E+00
  0.000000E+00  2.734375E+00  0.000000E+00
  0.000000E+00  3.125000E+00  0.000000E+00
  0.000000E+00  3.515625E+00  0.000000E+00
  0.000000E+00  3.906250E+00  0.000000E+00
  0.000000E+00  4.296875E+00  0.000000E+00
  0.000000E+00  4.687500E+00  0.000000E+00
  0.000000E+00  5.078125E+00  0.000000E+00
  0.000000E+00  5.468750E+00  0.000000E+00
  0.000000E+00  5.859375E+00  0.000000E+00
  0.000000E+00  6.250000E+00  0.000000E+00
  0.000000E+00  6.640625E+00  0.000000E+00
  0.000000E+00  7.031250E+00  0.000000E+00
  0.000000E+00  7.421875E+00  0.000000E+00
  0.000000E+00  7.812500E+00  0.000000E+00
  0.000000E+00  8.203125E+00  0.000000E+00
  0.000000E+00  8.593750E+00  0.000000E+00
  0.000000E+00  8.984375E+00  0.000000E+00
  0.000000E+00  9.375000E+00  0.000000E+00
  0.000000E+00  9.765625E+00  0.000000E+00
  0.000000E+00  1.015625E+01  0.000000E+00
  0.000000E+00  1.054688E+01  0.000000E+00
  0.000000E+00  1.093750E+01  0.000000E+00
  0.000000E+00  1.132812E+01  0.000000E+00
  0.000000E+00  1.171875E+01  0.000000E+00
  0.000000E+00  1.210938E+01  0.000000E+00
  0.000000E+00  1.250000E+01  0.000000E+00
  0.000000E+00  1.289062E+01  0.000000E+00
  0.000000E+00  1.328125E+01  0.000000E+00
  0.000000E+00  1.367188E+01  0.000000E+00
  0.000000E+00  1.406250E+01  0.000000E+00
  0.000000E+00  1.445312E+01  0.000000E+00
  0.000000E+00  1.484375E+01  0.000000E+00
  0.000000E+00  1.523438E+01  0.000000E+00
  0.000000E+00  1.562500E+01  0.000000E+00
  0.000000E+00  1.601562E+01  0.000000E+00
  0.000000E+00  1.640625E+01  0.000000E+00
  0.000000E+00  1.679688E+01  0.000000E+00
  0.000000E+00  1.718750E+01  0.000000E+00
  0.000000E+00  1.757812E+01  0.000000E+00
  0.000000E+00  1.796875E+01  0.000000E+00
  0.000000E+00  1.835938E+01  0.000000E+00
  0.000000E+00  1.875000E+01  0.000000E+00
  0.000000E+00  1.914062E+01  0.000000E+00
  0.000000E+00  1.953125E+01  0.000000E+00
  0.000000E+00  1.992188E+01  0.000000E+00
  0.000000E+00  2.031250E+01  0.000000E+00
  0.000000E+00  2.070312E+01  0.000000E+00
  0.000000E+00  2.109375E+01  0.000000E+00
  0.000000E+00  2.148438E+01  0.000000E+00
  0.000000E+00  2.187500E+01  0.000000E+00
  0.000000E+00  2.226562E+01  0.000000E+00
  0.000000E+00  2.265625E+01  0.000000E+00
  0.000000E+00  2.304688E+01  0.000000E+00
  0.000000E+00  2.343750E+01  0.000000E+00
  0.000000E+00  2.382812E+01  0.000000E+00
  0.000000E+00  2.421875E+01  0.000000E+00
  0.000000E+00  2.460938E+01  0.000000E+00
  3.906250E-01  0.000000E+00  0.000000E+00
  3.906250E-01  3.906250E-01  0.000000E+00
  3.906250E-01  7.812500E-01  0.000000E+00
  3.906250E-01  1.171875E+00  0.000000E+00
  3.906250E-01  1.562500E+00  0.000000E+00
  3.906250E-01  1.953125E+00  0.000000E+00
  3.906250E-01  2.343750E+00  0.000000E+00
  3.906250E-01  2.734375E+00  0.000000E+00
  3.906250E-01  3.125000E+00  0.000000E+00
  3.906250E-01  3.515625E+00  0.000000E+00
  3.906250E-01  3.906250E+00  0.000000E+00
  3.906250E-01  4.296875E+00  0.000000E+00
  3.906250E-01  4.687500E+00  0.000000E+00
  3.906250E-01  5.078125E+00  0.000000E+00
  3.906250E-01  5.468750E+00  0.000000E+00
  3.906250E-01  5.859375E+00  0.000000E+00
  3.906250E-01  6.250000E+00  0.000000E+00
  3.906250E-01  6.640625E+00  0.000000E+00
  3.906250E-01  7.031250E+00  0.000000E+00
  3.906250E-01  7.421875E+00  0.000000E+00
  3.906250E-01  7.812500E+00  0.000000E+00
  3.906250E-01  8.203125E+00  0.000000E+00
  3.906250E-01  8.593750E+00  0.000000E+00
  3.906250E-01  8.984375E+00  0.000000E+00
  3.906250E-01  9.375000E+00  0.000000E+00
  3.906250E-01  9.765625E+00  0.000000E+00
  3.906250E-01  1.015625E+01  0.000000E+00
  3.906250E-01  1.054688E+01  0.000000E+00
  3.906250E-01  1.093750E+01  0.000000E+00
  3.906250E-01  1.132812E+01  0.000000E+00
  3.906250E-01  1.171875E+01  0.000000E+00
  3.906250E-01  1.210938E+01  0.000000E+00
  3.906250E-01  1.250000E+01  0.000000E+00
  3.906250E-01  1.289062E+01  0.000000E+00
  3.906250E-01  1.328125E+01  0.000000E+00
  3.906250E-01  1.367188E+01  0.000000E+00
  3.906250E-01  1.406250E+01  0.000000E+00
  3.906250E-01  1.445312E+01  0.000000E+00
  3.906250E-01  1.484375E+01  0.000000E+00
  3.906250E-01  1.523438E+01  0.000000E+00
  3.906250E-01  1.562500E+01  0.000000E+00
  3.906250E-01  1.601562E+01  0.000000E+00
  3.906250E-01  1.640625E+01  0.000000E+00
  3.906250E-01  1.679688E+01  0.000000E+00
  3.906250E-01  1.718750E+01  0.000000E+00
  3.906250E-01  1.757812E+01  0.000000E+00
  3.906250E-01  1.796875E+01  0.000000E+00
  3.906250E-01  1.835938E+01  0.000000E+00
  3.906250E-01  1.875000E+01  0.000000E+00
  3.906250E-01  1.914062E+01  0.000000E+00
  3.906250E-01  1.953125E+01  0.000000E+00
  3.906250E-01  1.992188E+01  0.000000E+00
  3.906250E-01  2.031250E+01  0.000000E+00
  3.906250E-01  2.070312E+01  0.000000E+00
  3.906250E-01  2.109375E+01  0.000000E+00
  3.906250E-01  2.148438E+01  0.000000E+00
  3.906250E-01  2.187500E+01  0.000000E+00
  3.906250E-01  2.226562E+01  0.000000E+00
  3.906250E-01  2.265625E+01  0.000000E+00
  3.906250E-01  2.304688E+01  0.000000E+00
  3.906250E-01  2.343750E+01  0.000000E+00
  3.906250E-01  2.382812E+01  0.000000E+00
  3.906250E-01  2.421875E+01  0.000000E+00
  3.906250E-01  2.460938E+01  0.000000E+00
  7.812500E-01  0.000000E+00  0.000000E+00
  7.812500E-01  3.906250E-01  0.000000E+00
  7.812500E-01  7.812500E-01  0.000000E+00
  7.812500E-01  1.171875E+00  0.000000E+00
  7.812500E-01  1.562500E+00  0.000000E+00
  7.812500E-01  1.953125E+00  0.000000E+00
  7.812500E-01  2.343750E+00  0.000000E+00
  7.812500E-01  2.734375E+00  0.000000E+00
  7.812500E-01  3.125000E+00  0.000000E+00
  7.812500E-01  3.515625E+00  0.000000E+00
  7.812500E-01  3.906250E+00  0.000000E+00
  7.812500E-01  4.296875E+00  0.000000E+00
  7.812500E-01  4.687500E+00  0.000000E+00
  7.812500E-01  5.078125E+00  0.000000E+00
  7.812500E-01  5.468750E+00  0.000000E+00
  7.812500E-01  5.859375E+00  0.000000E+00
  7.812500E-01  6.250000E+00  0.000000E+00
  7.812500E-01  6.640625E+00  0.000000E+00
  7.812500E-01  7.031250E+00  0.000000E+00
  7.812500E-01  7.421875E+00  0.000000E+00
  7.812500E-01  7.812500E+00  0.000000E+00
  7.812500E-01  8.203125E+00  0.000000E+00
  7.812500E-01  8.593750E+00  0.000000E+00
  7.812500E-01  8.984375E+00  0.000000E+00
  7.812500E-01  9.375000E+00  0.000000E+00
  7.812500E-01  9.765625E+00  0.000000E+00
  7.812500E-01  1.015625E+01  0.000000E+00
  7.812500E-01  1.054688E+01  0.000000E+00
  7.812500E-01  1.093750E+01  0.000000E+00
  7.812500E-01  1.132812E+01  0.000000E+00
  7.812500E-01  1.171875E+01  0.000000E+00
  7.812500E-01  1.210938E+01  0.000000E+00
  7.812500E-01  1.250000E+01  0.000000E+00
  7.812500E-01  1.289062E+01  0.000000E+00
  7.812500E-01  1.328125E+01  0.000000E+00
  7.812500E-01  1.367188E+01  0.000000E+00
  7.812500E-01  1.406250E+01  0.000000E+00
  7.812500E-01  1.445312E+01  0.000000E+00
  7.812500E-01  1.484375E+01  0.000000E+00
  7.812500E-01  1.523438E+01  0.000000E+00
  7.812500E-01  1.562500E+01  0.000000E+00
  7.812500E-01  1.601562E+01  0.000000E+00
  7.812500E-01  1.640625E+01  0.000000E+00
  7.812500E-01  1.679688E+01  0.000000E+00
  7.812500E-01  1.718750E+01  0.000000E+00
  7.812500E-01  1.757812E+01  0.000000E+00
  7.812500E-01  1.796875E+01  0.000000E+00
  7.812500E-01  1.835938E+01  0.000000E+00
  7.812500E-01  1.875000E+01  0.000000E+00
  7.812500E-01  1.914062E+01  0.000000E+00
  7.812500E-01  1.953125E+01  0.000000E+00
  7.812500E-01  1.992188E+01  0.000000E+00
  7.812500E-01  2.031250E+01  0.000000E+00
  7.812500E-01  2.070312E+01  0.000000E+00
  7.812500E-01  2.109375E+01  0.000000E+00
  7.812500E-01  2.148438E+01  0.000000E+00
  7.812500E-01  2.187500E+01  0.000000E+00
  7.812500E-01  2.226562E+01  0.000000E+00
  7.812500E-01  2.265625E+01  0.000000E+00
  7.812500E-01  2.304688E+01  0.000000E+00
  7.812500E-01  2.343750E+01  0.000000E+00
  7.812500E-01  2.382812E+01  0.000000E+00
  7.812500E-01  2.421875E+01  0.000000E+00
  7.812500E-01  2.460938E+01  0.000000E+00
  1.171875E+00  0.000000E+00  0.000000E+00
  1.171875E+00  3.906250E-01  0.000000E+00
  1.171875E+00  7.812500E-01  0.000000E+00
  1.171875E+00  1.171875E+00  0.000000E+00
  1.171875E+00  1.562500E+00  0.000000E+00
  1.171875E+00  1.953125E+00  0.000000E+00
  1.171875E+00  2.343750E+00  0.000000E+00
  1.171875E+00  2.734375E+00  0.000000E+00
  1.171875E+00  3.125000E+00  0.000000E+00
  1.171875E+00  3.515625E+00  0.000000E+00
  1.171875E+00  3.906250E+00  0.000000E+00
  1.171875E+00  4.296875E+00  0.000000E+00
  1.171875E+00  4.687500E+00  0.000000E+00
  1.171875E+00  5.078125E+00  0.000000E+00
  1.171875E+00  5.468750E+00  0.000000E+00
  1.171875E+00  5.859375E+00  0.000000E+00
  1.171875E+00  6.250000E+00  0.000000E+00
  1.171875E+00  6.640625E+00  0.000000E+00
  1.171875E+00  7.031250E+00  0.000000E+00
  1.171875E+00  7.421875E+00  0.000000E+00
  1.171875E+00  7.812500E+00  0.000000E+00
  1.171875E+00  8.203125E+00  0.000000E+00
  1.171875E+00  8.593750E+00  0.000000E+00
  1.171875E+00  8.984375E+00  0.000000E+00
  1.171875E+00  9.375000E+00  0.000000E+00
  1.171875E+00  9.765625E+00  0.000000E+00
  1.171875E+00  1.015625E+01  0.000000E+00
  1.171875E+00  1.054688E+01  0.000000E+00
  1.171875E+00  1.093750E+01  0.000000E+00
  1.171875E+00  1.132812E+01  0.000000E+00
  1.171875E+00  1.171875E+01  0.000000E+00
  1.171875E+00  1.210938E+01  0.000000E+00
  1.171875E+00  1.250000E+01  0.000000E+00
  1.171875E+00  1.289062E+01  0.000000E+00
  1.171875E+00  1.328125E+01  0.000000E+00
  1.171875E+00  1.367188E+01  0.000000E+00
  1.171875E+00  1.406250E+01  0.000000E+00
  1.171875E+00  1.445312E+01  0.000000E+00
[...]
POINT_DATA   4096
SCALARS CON  float  1
LOOKUP_TABLE default
  4.695467E-01
  4.683408E-01
  4.704982E-01
  4.690764E-01
  4.708107E-01
  4.689130E-01
  4.702663E-01
  4.681725E-01
  4.695307E-01
  4.676012E-01
  4.692181E-01
  4.675854E-01
  4.695017E-01
  4.681476E-01
  4.702930E-01
  4.690734E-01
  4.712020E-01
  4.697681E-01
  4.714775E-01
  4.694691E-01
  4.705521E-01
  4.679975E-01
  4.687347E-01
  4.661043E-01
  4.670349E-01
  4.647993E-01
  4.662196E-01
  4.644623E-01
  4.662772E-01
  4.648079E-01
  4.668220E-01
  4.654967E-01
  4.676196E-01
  4.663565E-01
  4.684563E-01
  4.670404E-01
  4.688377E-01
  4.669990E-01
  4.683358E-01
  4.661163E-01
  4.672697E-01
  4.651414E-01
  4.666665E-01
  4.651156E-01
  4.672839E-01
  4.662752E-01
  4.687412E-01
  4.677127E-01
  4.698664E-01
  4.683515E-01
  4.700181E-01
  4.681811E-01
  4.697850E-01
  4.681294E-01
  4.700386E-01
  4.686369E-01
  4.705948E-01
  4.689748E-01
  4.705092E-01
  4.684233E-01
  4.696444E-01
  4.675399E-01
  4.690627E-01
  4.674769E-01
  4.712446E-01
  4.703999E-01
  4.714414E-01
  4.701021E-01
  4.705928E-01
  4.688266E-01
  4.691476E-01
  4.675102E-01
  4.682031E-01
  4.670623E-01
  4.682491E-01
  4.675102E-01
  4.689756E-01
  4.684068E-01
  4.699620E-01
  4.694126E-01
  4.708950E-01
  4.701406E-01
  4.712588E-01
  4.699985E-01
  4.705447E-01
  4.687663E-01
  4.689763E-01
  4.671350E-01
  4.675761E-01
  4.661996E-01
  4.672161E-01
  4.663780E-01
  4.677697E-01
  4.670753E-01
  4.683838E-01
  4.674470E-01
  4.684551E-01
  4.672565E-01
  4.681011E-01
  4.668463E-01
  4.677074E-01
  4.664891E-01
  4.673672E-01
  4.661420E-01
  4.670232E-01
  4.658650E-01
  4.669197E-01
  4.660441E-01
  4.674414E-01
  4.668808E-01
  4.684733E-01
  4.679324E-01
  4.693781E-01
  4.685982E-01
  4.698227E-01
  4.689361E-01
  4.702067E-01
  4.694784E-01
  4.709157E-01
  4.702435E-01
  4.715499E-01
  4.705667E-01
  4.714767E-01
  4.701570E-01
  4.709219E-01
  4.697054E-01
  4.707738E-01
  4.699224E-01
  4.681959E-01
  4.684838E-01
  4.693038E-01
  4.694139E-01
  4.697824E-01
  4.693495E-01
  4.692675E-01
  4.685975E-01
  4.685220E-01
  4.680547E-01
  4.682939E-01
  4.681740E-01
  4.687413E-01
  4.689029E-01
  4.696825E-01
  4.699504E-01
  4.706785E-01
  4.706885E-01
  4.709375E-01
  4.702915E-01
  4.698153E-01
  4.685237E-01
  4.676277E-01
  4.662390E-01
  4.655854E-01
  4.647122E-01
  4.647222E-01
  4.645203E-01
  4.650967E-01
  4.652960E-01
  4.661018E-01
  4.663852E-01
  4.671609E-01
  4.673149E-01
  4.678571E-01
  4.676651E-01
  4.677608E-01
  4.670731E-01
  4.667165E-01
  4.657352E-01
  4.653456E-01
  4.646425E-01
  4.648153E-01
  4.648509E-01
  4.657730E-01
  4.663897E-01
  4.675871E-01
  4.681220E-01
  4.689369E-01
  4.689373E-01
  4.692576E-01
  4.689702E-01
  4.692861E-01
  4.692314E-01
  4.698638E-01
  4.700097E-01
  4.705669E-01
  4.703158E-01
  4.702504E-01
  4.693583E-01
  4.688702E-01
  4.679422E-01
  4.678335E-01
  4.675750E-01
  4.695282E-01
  4.701880E-01
  4.698738E-01
  4.700812E-01
  4.692138E-01
  4.689617E-01
  4.678845E-01
  4.677349E-01
  4.670288E-01
  4.673992E-01
  4.672227E-01
  4.680273E-01
  4.681463E-01
  4.691188E-01
  4.693096E-01
  4.702736E-01
  4.703576E-01
  4.710744E-01
  4.707385E-01
  4.708771E-01
  4.698841E-01
  4.694206E-01
  4.680293E-01
  4.674842E-01
  4.663625E-01
  4.663782E-01
  4.659708E-01
  4.666807E-01
  4.667900E-01
  4.677424E-01
  4.678049E-01
  4.684817E-01
  4.681477E-01
  4.684212E-01
  4.677624E-01
  4.678268E-01
  4.670666E-01
  4.671048E-01
  4.663637E-01
  4.664590E-01
  4.658308E-01
  4.661228E-01
  4.657870E-01
  4.664423E-01
  4.664746E-01
  4.674138E-01
  4.675692E-01
  4.684424E-01
  4.683821E-01
  4.689870E-01
  4.687243E-01
  4.692809E-01
  4.691400E-01
  4.699201E-01
  4.699764E-01
  4.707948E-01
  4.706542E-01
  4.710614E-01
  4.704130E-01
  4.703872E-01
  4.695357E-01
  4.696087E-01
  4.691128E-01
  4.696489E-01
  4.663243E-01
  4.679360E-01
  4.675624E-01
  4.690609E-01
  4.682747E-01
  4.692404E-01
  4.679912E-01
  4.686962E-01
  4.674304E-01
  4.683230E-01
  4.673660E-01
  4.686057E-01
  4.679775E-01
  4.694967E-01
  4.690748E-01
  4.706900E-01
  4.701993E-01
  4.715281E-01
  4.705143E-01
  4.711270E-01
  4.693179E-01
  4.692177E-01
  4.669417E-01
  4.667334E-01
  4.647334E-01
  4.651162E-01
  4.638847E-01
  4.650534E-01
  4.644904E-01
  4.661314E-01
  4.658256E-01
  4.675312E-01
  4.671323E-01
  4.686128E-01
  4.678691E-01
  4.688959E-01
  4.676212E-01
  4.681071E-01
  4.663819E-01
  4.666189E-01
  4.649330E-01
  4.655240E-01
  4.644532E-01
  4.657914E-01
  4.654259E-01
  4.672571E-01
  4.670577E-01
  4.687072E-01
  4.680617E-01
  4.691647E-01
  4.680630E-01
  4.689508E-01
  4.679276E-01
  4.691187E-01
  4.684557E-01
  4.698610E-01
  4.691119E-01
  4.700942E-01
  4.686915E-01
  4.690050E-01
  4.671613E-01
  4.674360E-01
  4.659899E-01
  4.669762E-01
  4.677346E-01
  4.693827E-01
  4.681813E-01
  4.694800E-01
  4.678159E-01
  4.687112E-01
  4.668476E-01
  4.678124E-01
  4.662578E-01
  4.676709E-01
  4.665824E-01
  4.683863E-01
  4.675738E-01
  4.695471E-01
  4.688219E-01
  4.708056E-01
  4.699852E-01
  4.717177E-01
  4.704534E-01
  4.715656E-01
  4.695930E-01
  4.700566E-01
  4.676582E-01
  4.680420E-01
  4.659466E-01
  4.669499E-01
  4.656404E-01
  4.674074E-01
  4.666692E-01
  4.687100E-01
  4.679297E-01
  4.696738E-01
  4.684535E-01
  4.697346E-01
  4.681220E-01
  4.691298E-01
  4.673671E-01
  4.683258E-01
  4.665900E-01
  4.676398E-01
  4.660627E-01
  4.673451E-01
  4.660643E-01
  4.676673E-01
  4.666648E-01
  4.684305E-01
  4.674261E-01
  4.690270E-01
  4.677569E-01
  4.690957E-01
  4.676752E-01
  4.690422E-01
  4.678212E-01
  4.694741E-01
  4.684931E-01
  4.702134E-01
  4.690607E-01
  4.703968E-01
  4.687633E-01
  4.696857E-01
  4.678530E-01
  4.688623E-01
  4.673673E-01
  4.688329E-01
  4.648085E-01
  4.669908E-01
  4.661113E-01
  4.683281E-01
  4.671786E-01
  4.689601E-01
  4.673733E-01
  4.688437E-01
  4.671316E-01
  4.686549E-01
  4.671261E-01
  4.689075E-01
  4.676679E-01
  4.697365E-01
  4.687436E-01
  4.709613E-01
  4.699464E-01
  4.719042E-01
  4.703675E-01
  4.715899E-01
  4.692297E-01
  4.697164E-01
  4.668834E-01
  4.672778E-01
  4.647549E-01
  4.657827E-01
  4.640660E-01
  4.659026E-01
  4.648578E-01
  4.671522E-01
  4.663379E-01
  4.686636E-01
  4.677210E-01
  4.697872E-01
  4.684677E-01
  4.700542E-01
  4.681891E-01
  4.692363E-01
  4.669406E-01
  4.677719E-01
  4.655480E-01
  4.667467E-01
  4.651144E-01
  4.669912E-01
  4.659552E-01
  4.681966E-01
  4.672079E-01
  4.691866E-01
  4.677251E-01
  4.691835E-01
  4.673281E-01
  4.686441E-01
  4.669285E-01
  4.685881E-01
  4.672572E-01
  4.691542E-01
  4.677723E-01
  4.692971E-01
  4.673178E-01
  4.682158E-01
  4.658058E-01
  4.666389E-01
  4.645776E-01
  4.660798E-01
  4.666217E-01
  4.684294E-01
  4.670950E-01
  4.687367E-01
  4.671214E-01
  4.684860E-01
  4.667043E-01
  4.680691E-01
  4.664461E-01
  4.680709E-01
  4.667372E-01
  4.686273E-01
  4.675158E-01
  4.695909E-01
  4.686312E-01
  4.708023E-01
  4.698270E-01
  4.718027E-01
  4.704105E-01
  4.717701E-01
  4.696644E-01
  4.703746E-01
  4.678553E-01
  4.685111E-01
  4.663253E-01
  4.676236E-01
  4.662274E-01
  4.682682E-01
  4.674001E-01
  4.696587E-01
  4.686920E-01
  4.706076E-01
  4.691696E-01
  4.706055E-01
  4.687706E-01
  4.699385E-01
  4.679683E-01
  4.691127E-01
  4.672049E-01
  4.684797E-01
  4.667610E-01
  4.682735E-01
  4.668178E-01
  4.685752E-01
  4.672899E-01
  4.690935E-01
  4.677104E-01
  4.692982E-01
  4.676529E-01
  4.690280E-01
  4.673040E-01
  4.687726E-01
  4.672869E-01
  4.690501E-01
  4.677962E-01
  4.696239E-01
  4.682190E-01
  4.697105E-01
  4.678854E-01
  4.690098E-01
  4.669938E-01
  4.681675E-01
  4.664211E-01
  4.679880E-01
  4.641385E-01
  4.661522E-01
  4.654329E-01
  4.676757E-01
  4.668818E-01
  4.688254E-01
  4.676275E-01
  4.691781E-01
  4.676808E-01
  4.690670E-01
  4.675501E-01
  4.690528E-01
  4.677685E-01
  4.695841E-01
  4.686306E-01
  4.707042E-01
  4.698313E-01
  4.717219E-01
  4.703735E-01
  4.715513E-01
  4.693915E-01
  4.698474E-01
  4.672358E-01
  4.676246E-01
  4.653419E-01
  4.663637E-01
  4.648593E-01
  4.666335E-01
  4.657245E-01
  4.678746E-01
  4.671239E-01
  4.692546E-01
  4.683507E-01
  4.702202E-01
  4.689554E-01
  4.703734E-01
  4.686003E-01
  4.695245E-01
  4.673715E-01
  4.681282E-01
  4.660809E-01
  4.672099E-01
  4.657198E-01
  4.674536E-01
  4.664621E-01
  4.684638E-01
  4.674527E-01
  4.691750E-01
  4.677280E-01
  4.690047E-01
  4.672464E-01
  4.684399E-01
  4.668377E-01
  4.683491E-01
  4.670838E-01
  4.687919E-01
  4.674665E-01
  4.688313E-01
  4.669600E-01
  4.677427E-01
  4.654497E-01
  4.661286E-01
  4.641116E-01
  4.653892E-01
  4.663695E-01
  4.678030E-01
  4.668038E-01
  4.682418E-01
  4.671380E-01
  4.684233E-01
  4.671813E-01
  4.683851E-01
  4.671315E-01
  4.683845E-01
  4.672258E-01
  4.686132E-01
  4.676326E-01
  4.692431E-01
  4.685096E-01
  4.703342E-01
  4.696954E-01
  4.714085E-01
  4.704065E-01
  4.715346E-01
  4.698388E-01
  4.703350E-01
  4.682434E-01
  4.686979E-01
  4.669378E-01
  4.680090E-01
  4.669850E-01
  4.687218E-01
  4.681374E-01
  4.700076E-01
  4.692585E-01
  4.707464E-01
  4.695147E-01
  4.705355E-01
  4.689366E-01
  4.697306E-01
  4.680467E-01
  4.688750E-01
  4.673147E-01
  4.683292E-01
  4.669954E-01
  4.682525E-01
  4.671459E-01
  4.685757E-01
  4.675492E-01
  4.689446E-01
  4.677780E-01
  4.689716E-01
  4.676113E-01
  4.686925E-01
  4.673502E-01
  4.685836E-01
  4.674797E-01
  4.689524E-01
  4.679953E-01
  4.694536E-01
  4.683034E-01
  4.694320E-01
  4.679040E-01
  4.687136E-01
  4.670157E-01
  4.678499E-01
  4.663584E-01
  4.675155E-01
  4.642508E-01
  4.658003E-01
  4.654765E-01
  4.673646E-01
  4.670917E-01
  4.687740E-01
  4.681186E-01
  4.693431E-01
  4.682526E-01
  4.691460E-01
  4.678862E-01
  4.688031E-01
  4.677582E-01
  4.690392E-01
  4.684214E-01
  4.700711E-01
  4.696335E-01
  4.711749E-01
  4.703100E-01
  4.711672E-01
  4.695084E-01
  4.696550E-01
  4.675484E-01
  4.676188E-01
  4.658127E-01
  4.664657E-01
  4.653680E-01
  4.666935E-01
  4.661144E-01
  4.677541E-01
  4.672955E-01
  4.689038E-01
  4.683017E-01
  4.696741E-01
  4.687465E-01
  4.697104E-01
  4.683260E-01
  4.688561E-01
  4.671562E-01
  4.675774E-01
  4.660201E-01
  4.668138E-01
  4.657706E-01
  4.670896E-01
  4.664512E-01
  4.679620E-01
  4.672755E-01
  4.685423E-01
  4.675138E-01
  4.684599E-01
  4.672349E-01
  4.681633E-01
  4.670887E-01
  4.682622E-01
  4.674130E-01
  4.686749E-01
  4.676986E-01
  4.686093E-01
  4.671301E-01
  4.675226E-01
  4.656690E-01
  4.659615E-01
  4.643403E-01
  4.651624E-01
  4.667984E-01
  4.677472E-01
  4.671283E-01
  4.681024E-01
  4.674309E-01
  4.683028E-01
  4.675103E-01
  4.682690E-01
  4.673906E-01
  4.681067E-01
  4.672467E-01
  4.680622E-01
  4.673973E-01
  4.684973E-01
  4.681653E-01
  4.695670E-01
  4.694023E-01
  4.707441E-01
  4.702490E-01
  4.710253E-01
  4.698470E-01
  4.699921E-01
  4.684042E-01
  4.684742E-01
  4.671632E-01
  4.677790E-01
  4.671278E-01
  4.683415E-01
  4.680827E-01
  4.694097E-01
  4.689922E-01
  4.699613E-01
  4.690943E-01
  4.696298E-01
  4.684270E-01
  4.687688E-01
  4.675220E-01
  4.679507E-01
  4.668881E-01
  4.675588E-01
  4.667547E-01
  4.676587E-01
  4.670240E-01
  4.680040E-01
  4.673404E-01
  4.682008E-01
  4.673688E-01
  4.680731E-01
  4.671593E-01
  4.678977E-01
  4.671374E-01
  4.681085E-01
  4.675872E-01
  4.687219E-01
  4.682254E-01
  4.692238E-01
  4.684565E-01
  4.691160E-01
  4.680267E-01
  4.684582E-01
  4.672829E-01
  4.677787E-01
  4.667884E-01
  4.675350E-01
  4.649690E-01
  4.660209E-01
  4.660409E-01
  4.673536E-01
  4.673963E-01
  4.685095E-01
  4.681882E-01
  4.688566E-01
  4.681030E-01
  4.684401E-01
  4.675270E-01
  4.679179E-01
  4.672714E-01
  4.680911E-01
  4.679359E-01
  4.691764E-01
  4.692367E-01
  4.703904E-01
  4.700378E-01
  4.705189E-01
  4.693797E-01
  4.691454E-01
  4.675323E-01
  4.671696E-01
  4.657820E-01
  4.659171E-01
  4.651623E-01
  4.659213E-01
  4.656742E-01
  4.667738E-01
  4.666989E-01
  4.678267E-01
  4.676596E-01
  4.685854E-01
  4.681110E-01
  4.686419E-01
  4.677329E-01
  4.678689E-01
  4.666970E-01
  4.667745E-01
  4.657705E-01
  4.661992E-01
  4.656332E-01
  4.664680E-01
  4.661747E-01
  4.670973E-01
  4.667171E-01
  4.674412E-01
  4.668408E-01
  4.674079E-01
  4.667671E-01
  4.674178E-01
  4.669457E-01
  4.677777E-01
  4.674158E-01
  4.682180E-01
  4.676555E-01
  4.681074E-01
  4.671175E-01
  4.671720E-01
  4.659274E-01
  4.659541E-01
  4.649375E-01
  4.654116E-01
  4.677904E-01
  4.681880E-01
  4.678987E-01
  4.681577E-01
  4.677196E-01
  4.678482E-01
  4.673155E-01
  4.673928E-01
  4.668547E-01
  4.669782E-01
  4.665496E-01
  4.668602E-01
  4.667036E-01
  4.673570E-01
  4.675672E-01
  4.685328E-01
  4.689062E-01
  4.698055E-01
  4.698506E-01
  4.701976E-01
  4.695754E-01
  4.692945E-01
  4.682384E-01
  4.678239E-01
  4.669592E-01
  4.669979E-01
  4.667191E-01
  4.673225E-01
  4.674533E-01
  4.682310E-01
  4.682875E-01
  4.687892E-01
  4.684543E-01
  4.685479E-01
  4.678765E-01
  4.677667E-01
  4.670528E-01
  4.670548E-01
  4.665704E-01
  4.668613E-01
  4.666559E-01
  4.671494E-01
  4.670217E-01
  4.674509E-01
  4.671387E-01
  4.673229E-01
  4.667878E-01
  4.668534E-01
  4.663596E-01
  4.666331E-01
  4.664661E-01
  4.670960E-01
  4.672111E-01
  4.679653E-01
  4.680121E-01
  4.685303E-01
  4.682485E-01
  4.684436E-01
  4.679318E-01
  4.680396E-01
  4.675828E-01
  4.678443E-01
  4.675731E-01
  4.679868E-01
  4.662054E-01
  4.666004E-01
  4.669726E-01
  4.674115E-01
  4.676701E-01
  4.678652E-01
  4.678003E-01
  4.676555E-01
  4.673018E-01
  4.669827E-01
  4.666188E-01
  4.664773E-01
  4.664655E-01
  4.667939E-01
  4.672728E-01
  4.679930E-01
  4.686504E-01
  4.692601E-01
  4.695077E-01
  4.694746E-01
  4.689770E-01
  4.682578E-01
  4.672814E-01
  4.663847E-01
  4.655489E-01
  4.650533E-01
  4.647731E-01
  4.648696E-01
  4.651209E-01
  4.656283E-01
  4.661440E-01
  4.667632E-01
  4.672380E-01
  4.676660E-01
  4.678137E-01
  4.678186E-01
  4.675192E-01
  4.671467E-01
  4.666282E-01
  4.662457E-01
  4.659167E-01
  4.658525E-01
  4.658622E-01
  4.660511E-01
  4.661624E-01
  4.662966E-01
  4.662505E-01
  4.662114E-01
  4.660606E-01
  4.660377E-01
  4.660286E-01
  4.662312E-01
  4.664602E-01
  4.668370E-01
  4.671164E-01
  4.673930E-01
  4.674356E-01
  4.673898E-01
  4.671008E-01
  4.667967E-01
  4.663895E-01
  4.661405E-01
  4.659511E-01
  4.660314E-01
  4.692010E-01
  4.688167E-01
  4.689188E-01
  4.681719E-01
  4.679859E-01
  4.670706E-01
  4.668482E-01
  4.660148E-01
  4.659653E-01
  4.653684E-01
  4.656005E-01
  4.653211E-01
  4.658994E-01
  4.659780E-01
  4.668898E-01
  4.672214E-01
  4.682406E-01
  4.684804E-01
  4.691910E-01
  4.689401E-01
  4.690655E-01
  4.682575E-01
  4.679790E-01
  4.670118E-01
  4.668495E-01
  4.662359E-01
  4.665699E-01
  4.664706E-01
  4.672168E-01
  4.673405E-01
  4.680834E-01
  4.679948E-01
  4.683794E-01
  4.678783E-01
  4.678955E-01
  4.671571E-01
  4.671192E-01
  4.665144E-01
  4.667570E-01
  4.664980E-01
  4.670491E-01
  4.669658E-01
  4.674993E-01
  4.671998E-01
  4.673753E-01
  4.666816E-01
  4.665520E-01
  4.657493E-01
  4.657593E-01
  4.653234E-01
  4.658363E-01
  4.659055E-01
  4.667917E-01
  4.670120E-01
  4.678094E-01
  4.677590E-01
  4.682146E-01
  4.678738E-01
  4.681813E-01
  4.678641E-01
  4.683288E-01
  4.682156E-01
  4.688299E-01
  4.687335E-01
  4.676652E-01
  4.671996E-01
  4.679737E-01
  4.673690E-01
  4.679252E-01
  4.670648E-01
  4.673725E-01
  4.663136E-01
  4.665104E-01
  4.654586E-01
  4.658000E-01
  4.650314E-01
  4.657694E-01
  4.654557E-01
  4.666260E-01
  4.666298E-01
  4.679216E-01
  4.678036E-01
  4.687342E-01
  4.680757E-01
  4.683907E-01
  4.671651E-01
  4.670742E-01
  4.656769E-01
  4.656668E-01
  4.645681E-01
  4.650027E-01
  4.644096E-01
  4.653323E-01
  4.651496E-01
  4.663624E-01
  4.663194E-01
  4.675018E-01
  4.672547E-01
  4.680831E-01
  4.673915E-01
  4.677768E-01
  4.667467E-01
  4.669790E-01
  4.660084E-01
  4.664716E-01
  4.658054E-01
  4.665273E-01
  4.659787E-01
  4.666423E-01
  4.658969E-01
  4.663167E-01
  4.653896E-01
  4.657750E-01
  4.649917E-01
  4.656692E-01
  4.652496E-01
  4.662663E-01
  4.660768E-01
  4.671635E-01
  4.668776E-01
  4.677374E-01
  4.671598E-01
  4.677406E-01
  4.669650E-01
  4.674702E-01
  4.667462E-01
  4.673980E-01
  4.668577E-01
  4.705391E-01
  4.693317E-01
  4.697694E-01
  4.680970E-01
  4.682074E-01
  4.663946E-01
  4.665556E-01
  4.649518E-01
  4.654282E-01
  4.641932E-01
  4.650516E-01
  4.641879E-01
  4.653943E-01
  4.648446E-01
  4.663128E-01
  4.659439E-01
  4.674777E-01
  4.670316E-01
  4.683390E-01
  4.675430E-01
  4.684365E-01
  4.672453E-01
  4.678477E-01
  4.665347E-01
  4.672112E-01
  4.661476E-01
  4.671852E-01
  4.665044E-01
  4.678516E-01
  4.673291E-01
  4.686411E-01
  4.678933E-01
  4.688391E-01
  4.676701E-01
  4.682433E-01
  4.668466E-01
  4.674003E-01
  4.662015E-01
  4.671189E-01
  4.663466E-01
  4.676246E-01
  4.670298E-01
  4.682334E-01
  4.673170E-01
  4.680333E-01
  4.666021E-01
  4.669310E-01
  4.653645E-01
  4.658649E-01
  4.647431E-01
  4.658492E-01
  4.653384E-01
  4.669113E-01
  4.666259E-01
  4.681656E-01
  4.676516E-01
  4.688833E-01
  4.681060E-01
  4.692067E-01
  4.684521E-01
  4.696807E-01
  4.690632E-01
  4.703331E-01
  4.695864E-01
  4.686949E-01
  4.676020E-01
  4.685414E-01
  4.673108E-01
  4.680749E-01
  4.666629E-01
  4.672705E-01
  4.657530E-01
  4.663284E-01
  4.648707E-01
  4.656102E-01
  4.644201E-01
  4.655096E-01
  4.647070E-01
  4.661568E-01
  4.656169E-01
  4.671736E-01
  4.665558E-01
  4.678611E-01
  4.668686E-01
  4.677535E-01
  4.663810E-01
  4.669996E-01
  4.655186E-01
  4.661939E-01
  4.649098E-01
  4.658764E-01
  4.649259E-01
  4.662210E-01
  4.655539E-01
  4.670528E-01
  4.664781E-01
  4.679312E-01
  4.671625E-01
  4.682938E-01
  4.671344E-01
  4.678970E-01
  4.664890E-01
  4.671929E-01
  4.659272E-01
  4.669167E-01
  4.659695E-01
  4.671883E-01
  4.662939E-01
  4.673699E-01
  4.661937E-01
  4.669573E-01
  4.655573E-01
  4.662732E-01
  4.650299E-01
  4.660722E-01
  4.652438E-01
  4.666912E-01
  4.661702E-01
  4.677702E-01
  4.672310E-01
  4.686645E-01
  4.678626E-01
  4.690047E-01
  4.679478E-01
  4.689174E-01
  4.677861E-01
  4.687627E-01
  4.676791E-01
  4.710993E-01
  4.696092E-01
  4.699480E-01
  4.681023E-01
  4.682406E-01
  4.663734E-01
  4.666523E-01
  4.650413E-01
  4.656355E-01
  4.643509E-01
  4.652535E-01
  4.642497E-01
  4.654072E-01
  4.646345E-01
  4.659928E-01
  4.653730E-01
  4.668130E-01
  4.661844E-01
  4.675204E-01
  4.667100E-01
  4.678253E-01
  4.668073E-01
  4.677794E-01
  4.667188E-01
  4.677591E-01
  4.668574E-01
  4.681017E-01
  4.673882E-01
  4.687432E-01
  4.680156E-01
  4.692109E-01
  4.681912E-01
  4.690113E-01
  4.676114E-01
  4.681372E-01
  4.666108E-01
  4.672269E-01
  4.660045E-01
  4.670759E-01
  4.663493E-01
  4.678249E-01
  4.672944E-01
  4.686928E-01
  4.678220E-01
  4.687039E-01
  4.672814E-01
  4.677315E-01
  4.661210E-01
  4.666831E-01
  4.654573E-01
  4.665768E-01
  4.659411E-01
  4.675467E-01
  4.671996E-01
  4.688697E-01
  4.684033E-01
  4.698556E-01
  4.691677E-01
  4.704639E-01
  4.697050E-01
  4.709828E-01
  4.701916E-01
  4.713520E-01
  4.703136E-01
  4.686902E-01
  4.677408E-01
  4.682738E-01
  4.673908E-01
  4.679492E-01
  4.670419E-01
  4.675283E-01
  4.665157E-01
  4.668918E-01
  4.658037E-01
  4.661816E-01
  4.652023E-01
  4.657987E-01
  4.651169E-01
  4.660298E-01
  4.656113E-01
  4.666727E-01
  4.662561E-01
  4.671813E-01
  4.665351E-01
  4.672036E-01
  4.663408E-01
  4.668808E-01
  4.659953E-01
  4.666056E-01
  4.658498E-01
  4.666106E-01
  4.659963E-01
  4.668753E-01
  4.663531E-01
  4.672956E-01
  4.667972E-01
  4.677031E-01
  4.670876E-01
  4.677943E-01
  4.669289E-01
  4.673994E-01
  4.663906E-01
  4.668723E-01
  4.660439E-01
  4.668288E-01
  4.663311E-01
  4.673638E-01
  4.669470E-01
  4.678685E-01
  4.671895E-01
  4.677882E-01
  4.668315E-01
  4.672834E-01