# vtk DataFile Version 2.0
title
ASCII
DATASET STRUCTURED_GRID
DIMENSIONS   64   64    1
POINTS   4096  float
  0.000000E+00  0.000000E+00  0.000000E+00
  0.000000E+00  3.906250E-01  0.000000E+00
  0.000000E+00  7.812500E-01  0.000000E+00
  0.000000E+00  1.171875E+00  0.000000E+00
  0.000000E+00  1.562500E+00  0.000000E+00
  0.000000E+00  1.953125E+00  0.000000E+00
  0.000000E+00  2.343750E+00  0.000000E+00
  0.000000E+00  2.734375E+00  0.000000E+00
  0.000000E+00  3.125000E+00  0.000000E+00
  0.000000E+00  3.515625E+00  0.000000E+00
  0.000000E+00  3.906250E+00  0.000000E+00
  0.000000E+00  4.296875E+00  0.000000E+00
  0.000000E+00  4.687500E+00  0.000000E+00
  0.000000E+00  5.078125E+00  0.000000E+00
  0.000000E+00  5.468750E+00  0.000000E+00
  0.000000E+00  5.859375E+00  0.000000E+00
  0.000000E+00  6.250000E+00  0.000000E+00
  0.000000E+00  6.640625E+00  0.000000E+00
  0.000000E+00  7.031250E+00  0.000000E+00
  0.000000E+00  7.421875E+00  0.000000E+00
  0.000000E+00  7.812500E+00  0.000000E+00
  0.000000E+00  8.203125E+00  0.000000E+00
  0.000000E+00  8.593750E+00  0.000000E+00
  0.000000E+00  8.984375E+00  0.000000E+00
  0.000000E+00  9.375000E+00  0.000000E+00
  0.000000E+00  9.765625E+00  0.000000E+00
  0.000000E+00  1.015625E+01  0.000000E+00
  0.000000E+00  1.054688E+01  0.000000E+00
  0.000000E+00  1.093750E+01  0.000000E+00
  0.000000E+00  1.132812E+01  0.000000E+00
  0.000000E+00  1.171875E+01  0.000000E+00
  0.000000E+00  1.210938E+01  0.000000E+00
  0.000000E+00  1.250000E+01  0.000000E+00
  0.000000E+00  1.289062E+01  0.000000E+00
  0.000000E+00  1.328125E+01  0.000000E+00
  0.000000E+00  1.367188E+01  0.000000E+00
  0.000000E+00  1.406250E+01  0.000000E+00
  0.000000E+00  1.445312E+01  0.000000E+00
  0.000000E+00  1.484375E+01  0.000000E+00
  0.000000E+00  1.523438E+01  0.000000E+00
  0.000000E+00  1.562500E+01  0.000000E+00
  0.000000E+00  1.601562E+01  0.000000E+00
  0.000000E+00  1.640625E+01  0.000000E+00
  0.000000E+00  1.679688E+01  0.000000E+00
  0.000000E+00  1.718750E+01  0.000000E+00
  0.000000E+00  1.757812E+01  0.000000E+00
  0.000000E+00  1.796875E+01  0.000000E+00
  0.000000E+00  1.835938E+01  0.000000E+00
  0.000000E+00  1.875000E+01  0.000000E+00
  0.000000E+00  1.914062E+01  0.000000E+00
  0.000000E+00  1.953125E+01  0.000000E+00
  0.000000E+00  1.992188E+01  0.000000E+00
  0.000000E+00  2.031250E+01  0.000000E+00
  0.000000E+00  2.070312E+01  0.000000E+00
  0.000000E+00  2.109375E+01  0.000000E+00
  0.000000E+00  2.148438E+01  0.000000E+00
  0.000000E+00  2.187500E+01  0.000000E+00
  0.000000E+00  2.226562E+01  0.000000E+00
  0.000000E+00  2.265625E+01  0.000000E+00
  0.000000E+00  2.304688E+01  0.000000E+00
  0.000000E+00  2.343750E+01  0.000000E+00
  0.000000E+00  2.382812E+01  0.000000E+00
  0.000000E+00  2.421875E+01  0.000000E+00
  0.000000E+00  2.460938E+01  0.000000E+00
  3.906250E-01  0.000000E+00  0.000000E+00
  3.906250E-01  3.906250E-01  0.000000E+00
  3.906250E-01  7.812500E-01  0.000000E+00
  3.906250E-01  1.171875E+00  0.000000E+00
  3.906250E-01  1.562500E+00  0.000000E+00
  3.906250E-01  1.953125E+00  0.000000E+00
  3.906250E-01  2.343750E+00  0.000000E+00
  3.906250E-01  2.734375E+00  0.000000E+00
  3.906250E-01  3.125000E+00  0.000000E+00
  3.906250E-01  3.515625E+00  0.000000E+00
  3.906250E-01  3.906250E+00  0.000000E+00
  3.906250E-01  4.296875E+00  0.000000E+00
  3.906250E-01  4.687500E+00  0.000000E+00
  3.906250E-01  5.078125E+00  0.000000E+00
  3.906250E-01  5.468750E+00  0.000000E+00
  3.906250E-01  5.859375E+00  0.000000E+00
  3.906250E-01  6.250000E+00  0.000000E+00
  3.906250E-01  6.640625E+00  0.000000E+00
  3.906250E-01  7.031250E+00  0.000000E+00
  3.906250E-01  7.421875E+00  0.000000E+00
  3.906250E-01  7.812500E+00  0.000000E+00
  3.906250E-01  8.203125E+00  0.000000E+00
  3.906250E-01  8.593750E+00  0.000000E+00
  3.906250E-01  8.984375E+00  0.000000E+00
  3.906250E-01  9.375000E+00  0.000000E+00
  3.906250E-01  9.765625E+00  0.000000E+00
  3.906250E-01  1.015625E+01  0.000000E+00
  3.906250E-01  1.054688E+01  0.000000E+00
  3.906250E-01  1.093750E+01  0.000000E+00
  3.906250E-01  1.132812E+01  0.000000E+00
  3.906250E-01  1.171875E+01  0.000000E+00
  3.906250E-01  1.210938E+01  0.000000E+00
  3.906250E-01  1.250000E+01  0.000000E+00
  3.906250E-01  1.289062E+01  0.000000E+00
  3.906250E-01  1.328125E+01  0.000000E+00
  3.906250E-01  1.367188E+01  0.000000E+00
  3.906250E-01  1.406250E+01  0.000000E+00
  3.906250E-01  1.445312E+01  0.000000E+00
  3.906250E-01  1.484375E+01  0.000000E+00
  3.906250E-01  1.523438E+01  0.000000E+00
  3.906250E-01  1.562500E+01  0.000000E+00
  3.906250E-01  1.601562E+01  0.000000E+00
  3.906250E-01  1.640625E+01  0.000000E+00
  3.906250E-01  1.679688E+01  0.000000E+00
  3.906250E-01  1.718750E+01  0.000000E+00
  3.906250E-01  1.757812E+01  0.000000E+00
  3.906250E-01  1.796875E+01  0.000000E+00
  3.906250E-01  1.835938E+01  0.000000E+00
  3.906250E-01  1.875000E+01  0.000000E+00
  3.906250E-01  1.914062E+01  0.000000E+00
  3.906250E-01  1.953125E+01  0.000000E+00
  3.906250E-01  1.992188E+01  0.000000E+00
  3.906250E-01  2.031250E+01  0.000000E+00
  3.906250E-01  2.070312E+01  0.000000E+00
  3.906250E-01  2.109375E+01  0.000000E+00
  3.906250E-01  2.148438E+01  0.000000E+00
  3.906250E-01  2.187500E+01  0.000000E+00
  3.906250E-01  2.226562E+01  0.000000E+00
  3.906250E-01  2.265625E+01  0.000000E+00
  3.906250E-01  2.304688E+01  0.000000E+00
  3.906250E-01  2.343750E+01  0.000000E+00
  3.906250E-01  2.382812E+01  0.000000E+00
  3.906250E-01  2.421875E+01  0.000000E+00
  3.906250E-01  2.460938E+01  0.000000E+00
  7.812500E-01  0.000000E+00  0.000000E+00
  7.812500E-01  3.906250E-01  0.000000E+00
  7.812500E-01  7.812500E-01  0.000000E+00
  7.812500E-01  1.171875E+00  0.000000E+00
  7.812500E-01  1.562500E+00  0.000000E+00
  7.812500E-01  1.953125E+00  0.000000E+00
  7.812500E-01  2.343750E+00  0.000000E+00
  7.812500E-01  2.734375E+00  0.000000E+00
  7.812500E-01  3.125000E+00  0.000000E+00
  7.812500E-01  3.515625E+00  0.000000E+00
  7.812500E-01  3.906250E+00  0.000000E+00
  7.812500E-01  4.296875E+00  0.000000E+00
  7.812500E-01  4.687500E+00  0.000000E+00
  7.812500E-01  5.078125E+00  0.000000E+00
  7.812500E-01  5.468750E+00  0.000000E+00
  7.812500E-01  5.859375E+00  0.000000E+00
  7.812500E-01  6.250000E+00  0.000000E+00
  7.812500E-01  6.640625E+00  0.000000E+00
  7.812500E-01  7.031250E+00  0.000000E+00
  7.812500E-01  7.421875E+00  0.000000E+00
  7.812500E-01  7.812500E+00  0.000000E+00
  7.812500E-01  8.203125E+00  0.000000E+00
  7.812500E-01  8.593750E+00  0.000000E+00
  7.812500E-01  8.984375E+00  0.000000E+00
  7.812500E-01  9.375000E+00  0.000000E+00
  7.812500E-01  9.765625E+00  0.000000E+00
  7.812500E-01  1.015625E+01  0.000000E+00
  7.812500E-01  1.054688E+01  0.000000E+00
  7.812500E-01  1.093750E+01  0.000000E+00
  7.812500E-01  1.132812E+01  0.000000E+00
  7.812500E-01  1.171875E+01  0.000000E+00
  7.812500E-01  1.210938E+01  0.000000E+00
  7.812500E-01  1.250000E+01  0.000000E+00
  7.812500E-01  1.289062E+01  0.000000E+00
  7.812500E-01  1.328125E+01  0.000000E+00
  7.812500E-01  1.367188E+01  0.000000E+00
  7.812500E-01  1.406250E+01  0.000000E+00
  7.812500E-01  1.445312E+01  0.000000E+00
  7.812500E-01  1.484375E+01  0.000000E+00
  7.812500E-01  1.523438E+01  0.000000E+00
  7.812500E-01  1.562500E+01  0.000000E+00
  7.812500E-01  1.601562E+01  0.000000E+00
  7.812500E-01  1.640625E+01  0.000000E+00
  7.812500E-01  1.679688E+01  0.000000E+00
  7.812500E-01  1.718750E+01  0.000000E+00
  7.812500E-01  1.757812E+01  0.000000E+00
  7.812500E-01  1.796875E+01  0.000000E+00
  7.812500E-01  1.835938E+01  0.000000E+00
  7.812500E-01  1.875000E+01  0.000000E+00
  7.812500E-01  1.914062E+01  0.000000E+00
  7.812500E-01  1.953125E+01  0.000000E+00
  7.812500E-01  1.992188E+01  0.000000E+00
  7.812500E-01  2.031250E+01  0.000000E+00
  7.812500E-01  2.070312E+01  0.000000E+00
  7.812500E-01  2.109375E+01  0.000000E+00
  7.812500E-01  2.148438E+01  0.000000E+00
  7.812500E-01  2.187500E+01  0.000000E+00
  7.812500E-01  2.226562E+01  0.000000E+00
  7.812500E-01  2.265625E+01  0.000000E+00
  7.812500E-01  2.304688E+01  0.000000E+00
  7.812500E-01  2.343750E+01  0.000000E+00
  7.812500E-01  2.382812E+01  0.000000E+00
  7.812500E-01  2.421875E+01  0.000000E+00
  7.812500E-01  2.460938E+01  0.000000E+00
  1.171875E+00  0.000000E+00  0.000000E+00
  1.171875E+00  3.906250E-01  0.000000E+00
  1.171875E+00  7.812500E-01  0.000000E+00
  1.171875E+00  1.171875E+00  0.000000E+00
  1.171875E+00  1.562500E+00  0.000000E+00
  1.171875E+00  1.953125E+00  0.000000E+00
  1.171875E+00  2.343750E+00  0.000000E+00
  1.171875E+00  2.734375E+00  0.000000E+00
  1.171875E+00  3.125000E+00  0.000000E+00
  1.171875E+00  3.515625E+00  0.000000E+00
  1.171875E+00  3.906250E+00  0.000000E+00
  1.171875E+00  4.296875E+00  0.000000E+00
  1.171875E+00  4.687500E+00  0.000000E+00
  1.171875E+00  5.078125E+00  0.000000E+00
  1.171875E+00  5.468750E+00  0.000000E+00
  1.171875E+00  5.859375E+00  0.000000E+00
  1.171875E+00  6.250000E+00  0.000000E+00
  1.171875E+00  6.640625E+00  0.000000E+00
  1.171875E+00  7.031250E+00  0.000000E+00
  1.171875E+00  7.421875E+00  0.000000E+00
  1.171875E+00  7.812500E+00  0.000000E+00
  1.171875E+00  8.203125E+00  0.000000E+00
  1.171875E+00  8.593750E+00  0.000000E+00
  1.171875E+00  8.984375E+00  0.000000E+00
  1.171875E+00  9.375000E+00  0.000000E+00
  1.171875E+00  9.765625E+00  0.000000E+00
  1.171875E+00  1.015625E+01  0.000000E+00
  1.171875E+00  1.054688E+01  0.000000E+00
  1.171875E+00  1.093750E+01  0.000000E+00
  1.171875E+00  1.132812E+01  0.000000E+00
  1.171875E+00  1.171875E+01  0.000000E+00
  1.171875E+00  1.210938E+01  0.000000E+00
  1.171875E+00  1.250000E+01  0.000000E+00
  1.171875E+00  1.289062E+01  0.000000E+00
  1.171875E+00  1.328125E+01  0.000000E+00
  1.171875E+00  1.367188E+01  0.000000E+00
  1.171875E+00  1.406250E+01  0.000000E+00
  1.171875E+00  1.445312E+01  0.000000E+00
[...]
POINT_DATA   4096
SCALARS CON  float  1
LOOKUP_TABLE default
  4.695020E-01
  4.685463E-01
  4.710967E-01
  4.696298E-01
  4.713725E-01
  4.691572E-01
  4.704693E-01
  4.682048E-01
  4.697344E-01
  4.677647E-01
  4.695248E-01
  4.676958E-01
  4.695810E-01
  4.679545E-01
  4.701453E-01
  4.688479E-01
  4.712366E-01
  4.698548E-01
  4.718091E-01
  4.696996E-01
  4.708014E-01
  4.679368E-01
  4.685815E-01
  4.656726E-01
  4.666786E-01
  4.644132E-01
  4.661494E-01
  4.645036E-01
  4.666229E-01
  4.651110E-01
  4.672061E-01
  4.656474E-01
  4.677726E-01
  4.663266E-01
  4.685561E-01
  4.670732E-01
  4.690303E-01
  4.670451E-01
  4.683855E-01
  4.658519E-01
  4.668941E-01
  4.644317E-01
  4.659370E-01
  4.642503E-01
  4.666784E-01
  4.658404E-01
  4.688137E-01
  4.680457E-01
  4.705718E-01
  4.689735E-01
  4.705780E-01
  4.683191E-01
  4.697888E-01
  4.679651E-01
  4.702195E-01
  4.691280E-01
  4.716610E-01
  4.701909E-01
  4.717926E-01
  4.692156E-01
  4.700135E-01
  4.672926E-01
  4.686754E-01
  4.670195E-01
  4.713584E-01
  4.708052E-01
  4.721637E-01
  4.707640E-01
  4.711401E-01
  4.690033E-01
  4.691521E-01
  4.673405E-01
  4.681882E-01
  4.671518E-01
  4.685839E-01
  4.678218E-01
  4.692756E-01
  4.684488E-01
  4.699073E-01
  4.692012E-01
  4.708082E-01
  4.701132E-01
  4.714541E-01
  4.701889E-01
  4.707699E-01
  4.687682E-01
  4.688610E-01
  4.667705E-01
  4.672005E-01
  4.657735E-01
  4.670061E-01
  4.663057E-01
  4.680077E-01
  4.674201E-01
  4.688867E-01
  4.678267E-01
  4.687588E-01
  4.672780E-01
  4.680146E-01
  4.665705E-01
  4.674830E-01
  4.662127E-01
  4.671814E-01
  4.658213E-01
  4.666313E-01
  4.651895E-01
  4.661364E-01
  4.651108E-01
  4.666874E-01
  4.663247E-01
  4.683703E-01
  4.681072E-01
  4.698464E-01
  4.690065E-01
  4.701602E-01
  4.689998E-01
  4.702513E-01
  4.695531E-01
  4.713818E-01
  4.710435E-01
  4.727620E-01
  4.718029E-01
  4.725944E-01
  4.707646E-01
  4.710982E-01
  4.694097E-01
  4.704130E-01
  4.696240E-01
  4.680016E-01
  4.688126E-01
  4.700025E-01
  4.702200E-01
  4.703953E-01
  4.696260E-01
  4.692070E-01
  4.683737E-01
  4.683140E-01
  4.680126E-01
  4.684145E-01
  4.683858E-01
  4.689026E-01
  4.689469E-01
  4.695916E-01
  4.698181E-01
  4.705920E-01
  4.707402E-01
  4.711167E-01
  4.705505E-01
  4.700297E-01
  4.686084E-01
  4.675111E-01
  4.659552E-01
  4.651986E-01
  4.643537E-01
  4.644755E-01
  4.644510E-01
  4.651666E-01
  4.654482E-01
  4.662298E-01
  4.664460E-01
  4.671296E-01
  4.672483E-01
  4.677918E-01
  4.676477E-01
  4.677533E-01
  4.670241E-01
  4.665181E-01
  4.653283E-01
  4.646827E-01
  4.637745E-01
  4.638227E-01
  4.638966E-01
  4.650018E-01
  4.659537E-01
  4.675285E-01
  4.684093E-01
  4.693965E-01
  4.693729E-01
  4.694671E-01
  4.689051E-01
  4.690289E-01
  4.690363E-01
  4.699845E-01
  4.706358E-01
  4.716530E-01
  4.716377E-01
  4.714237E-01
  4.700615E-01
  4.689243E-01
  4.674533E-01
  4.670852E-01
  4.669648E-01
  4.694468E-01
  4.706680E-01
  4.705265E-01
  4.708405E-01
  4.695837E-01
  4.690090E-01
  4.674248E-01
  4.671816E-01
  4.664201E-01
  4.671511E-01
  4.671704E-01
  4.682937E-01
  4.683360E-01
  4.692943E-01
  4.691970E-01
  4.701538E-01
  4.701446E-01
  4.711099E-01
  4.708507E-01
  4.712339E-01
  4.701474E-01
  4.696777E-01
  4.679735E-01
  4.673170E-01
  4.659182E-01
  4.659730E-01
  4.654958E-01
  4.664438E-01
  4.666176E-01
  4.678401E-01
  4.678874E-01
  4.686692E-01
  4.681289E-01
  4.683653E-01
  4.674643E-01
  4.675706E-01
  4.667137E-01
  4.669217E-01
  4.661187E-01
  4.663020E-01
  4.654581E-01
  4.657034E-01
  4.651275E-01
  4.658632E-01
  4.658999E-01
  4.671827E-01
  4.675036E-01
  4.686942E-01
  4.685804E-01
  4.691780E-01
  4.685786E-01
  4.690290E-01
  4.687037E-01
  4.697301E-01
  4.699999E-01
  4.713151E-01
  4.713525E-01
  4.719207E-01
  4.709371E-01
  4.705910E-01
  4.691596E-01
  4.690146E-01
  4.683553E-01
  4.692409E-01
  4.659617E-01
  4.682711E-01
  4.680723E-01
  4.698064E-01
  4.685856E-01
  4.692995E-01
  4.674494E-01
  4.680963E-01
  4.666557E-01
  4.679299E-01
  4.670558E-01
  4.686731E-01
  4.679224E-01
  4.695642E-01
  4.688681E-01
  4.706318E-01
  4.700379E-01
  4.717201E-01
  4.707175E-01
  4.716348E-01
  4.696349E-01
  4.695663E-01
  4.668673E-01
  4.665889E-01
  4.642254E-01
  4.647218E-01
  4.633510E-01
  4.648072E-01
  4.641705E-01
  4.660548E-01
  4.655723E-01
  4.674326E-01
  4.668393E-01
  4.685374E-01
  4.677020E-01
  4.690226E-01
  4.676496E-01
  4.683250E-01
  4.663344E-01
  4.665977E-01
  4.645543E-01
  4.651909E-01
  4.638937E-01
  4.654836E-01
  4.651119E-01
  4.673597E-01
  4.672019E-01
  4.691631E-01
  4.683108E-01
  4.693989E-01
  4.677988E-01
  4.685408E-01
  4.671319E-01
  4.685233E-01
  4.679352E-01
  4.699251E-01
  4.693779E-01
  4.707317E-01
  4.690444E-01
  4.691688E-01
  4.666548E-01
  4.667142E-01
  4.649603E-01
  4.663360E-01
  4.675740E-01
  4.697840E-01
  4.686043E-01
  4.700519E-01
  4.679062E-01
  4.685606E-01
  4.661057E-01
  4.670476E-01
  4.653465E-01
  4.672043E-01
  4.662533E-01
  4.684968E-01
  4.675744E-01
  4.696629E-01
  4.686152E-01
  4.707234E-01
  4.697863E-01
  4.719095E-01
  4.706914E-01
  4.721524E-01
  4.699888E-01
  4.704736E-01
  4.676047E-01
  4.678808E-01
  4.653656E-01
  4.664511E-01
  4.649722E-01
  4.670531E-01
  4.663007E-01
  4.687048E-01
  4.678547E-01
  4.698312E-01
  4.683883E-01
  4.697903E-01
  4.679320E-01
  4.691316E-01
  4.672456E-01
  4.684981E-01
  4.666589E-01
  4.679258E-01
  4.661146E-01
  4.675061E-01
  4.659726E-01
  4.677719E-01
  4.666650E-01
  4.687511E-01
  4.676594E-01
  4.694542E-01
  4.678574E-01
  4.691282E-01
  4.672097E-01
  4.685131E-01
  4.669902E-01
  4.689012E-01
  4.679404E-01
  4.701096E-01
  4.689574E-01
  4.705217E-01
  4.685627E-01
  4.694242E-01
  4.671434E-01
  4.681998E-01
  4.665671E-01
  4.684797E-01
  4.644625E-01
  4.671461E-01
  4.664053E-01
  4.688030E-01
  4.673443E-01
  4.689313E-01
  4.668937E-01
  4.683066E-01
  4.664702E-01
  4.682808E-01
  4.668293E-01
  4.688871E-01
  4.675524E-01
  4.696963E-01
  4.685146E-01
  4.708831E-01
  4.698802E-01
  4.721941E-01
  4.707491E-01
  4.722126E-01
  4.696624E-01
  4.700525E-01
  4.667744E-01
  4.670006E-01
  4.641634E-01
  4.652896E-01
  4.635446E-01
  4.656742E-01
  4.646491E-01
  4.671571E-01
  4.662322E-01
  4.686801E-01
  4.676296E-01
  4.699095E-01
  4.686021E-01
  4.704713E-01
  4.685821E-01
  4.697708E-01
  4.672595E-01
  4.680716E-01
  4.655697E-01
  4.668089E-01
  4.650531E-01
  4.671569E-01
  4.661454E-01
  4.686695E-01
  4.676447E-01
  4.697367E-01
  4.679974E-01
  4.693150E-01
  4.669895E-01
  4.681060E-01
  4.660373E-01
  4.677772E-01
  4.664573E-01
  4.687578E-01
  4.675444E-01
  4.693955E-01
  4.672994E-01
  4.681510E-01
  4.653320E-01
  4.660478E-01
  4.637736E-01
  4.655437E-01
  4.665189E-01
  4.685443E-01
  4.673201E-01
  4.689938E-01
  4.672241E-01
  4.683906E-01
  4.663716E-01
  4.676525E-01
  4.660542E-01
  4.678737E-01
  4.667152E-01
  4.687476E-01
  4.675973E-01
  4.695752E-01
  4.684639E-01
  4.706290E-01
  4.697513E-01
  4.719840E-01
  4.708071E-01
  4.723123E-01
  4.701187E-01
  4.706147E-01
  4.677509E-01
  4.681424E-01
  4.657733E-01
  4.670989E-01
  4.658239E-01
  4.681107E-01
  4.674485E-01
  4.699083E-01
  4.690137E-01
  4.709637E-01
  4.694542E-01
  4.708475E-01
  4.689480E-01
  4.701476E-01
  4.682082E-01
  4.694445E-01
  4.675556E-01
  4.688434E-01
  4.670443E-01
  4.685120E-01
  4.669990E-01
  4.688079E-01
  4.675817E-01
  4.695013E-01
  4.681379E-01
  4.696945E-01
  4.678614E-01
  4.690163E-01
  4.670103E-01
  4.683007E-01
  4.666998E-01
  4.685172E-01
  4.673635E-01
  4.693720E-01
  4.680719E-01
  4.696413E-01
  4.677632E-01
  4.688193E-01
  4.666723E-01
  4.677980E-01
  4.660364E-01
  4.677303E-01
  4.638114E-01
  4.659378E-01
  4.655142E-01
  4.678235E-01
  4.671513E-01
  4.689621E-01
  4.677631E-01
  4.691811E-01
  4.677747E-01
  4.691271E-01
  4.677228E-01
  4.691087E-01
  4.677976E-01
  4.693969E-01
  4.684430E-01
  4.704719E-01
  4.698476E-01
  4.718953E-01
  4.708338E-01
  4.719997E-01
  4.698085E-01
  4.699210E-01
  4.670834E-01
  4.671623E-01
  4.649035E-01
  4.659725E-01
  4.648017E-01
  4.667613E-01
  4.661147E-01
  4.682307E-01
  4.674998E-01
  4.694524E-01
  4.685815E-01
  4.704133E-01
  4.693517E-01
  4.708233E-01
  4.692030E-01
  4.700031E-01
  4.677792E-01
  4.682460E-01
  4.660944E-01
  4.670446E-01
  4.656558E-01
  4.674277E-01
  4.666881E-01
  4.687690E-01
  4.679394E-01
  4.695874E-01
  4.681283E-01
  4.691430E-01
  4.672353E-01
  4.681199E-01
  4.664382E-01
  4.678260E-01
  4.667406E-01
  4.685807E-01
  4.675956E-01
  4.690888E-01
  4.673796E-01
  4.679980E-01
  4.655717E-01
  4.659070E-01
  4.637668E-01
  4.648941E-01
  4.661946E-01
  4.675287E-01
  4.667743E-01
  4.681937E-01
  4.673302E-01
  4.685302E-01
  4.674555E-01
  4.685447E-01
  4.674790E-01
  4.686424E-01
  4.676370E-01
  4.688098E-01
  4.678052E-01
  4.690682E-01
  4.683202E-01
  4.699811E-01
  4.696188E-01
  4.714260E-01
  4.707859E-01
  4.718644E-01
  4.702201E-01
  4.703402E-01
  4.681182E-01
  4.682469E-01
  4.666135E-01
  4.677057E-01
  4.670993E-01
  4.689871E-01
  4.687627E-01
  4.705864E-01
  4.699480E-01
  4.711750E-01
  4.699321E-01
  4.706791E-01
  4.691437E-01
  4.697786E-01
  4.682560E-01
  4.689623E-01
  4.675280E-01
  4.683394E-01
  4.670580E-01
  4.680987E-01
  4.671137E-01
  4.684560E-01
  4.676825E-01
  4.690618E-01
  4.681229E-01
  4.691865E-01
  4.678991E-01
  4.687198E-01
  4.673977E-01
  4.684151E-01
  4.674533E-01
  4.688599E-01
  4.681671E-01
  4.696152E-01
  4.687091E-01
  4.697471E-01
  4.683508E-01
  4.689511E-01
  4.672786E-01
  4.678260E-01
  4.663305E-01
  4.672380E-01
  4.637748E-01
  4.652740E-01
  4.652787E-01
  4.672734E-01
  4.673578E-01
  4.690777E-01
  4.686647E-01
  4.698073E-01
  4.688482E-01
  4.695455E-01
  4.682876E-01
  4.688755E-01
  4.677397E-01
  4.686963E-01
  4.681236E-01
  4.696953E-01
  4.695772E-01
  4.712292E-01
  4.706949E-01
  4.714772E-01
  4.698404E-01
  4.696197E-01
  4.674011E-01
  4.672035E-01
  4.655847E-01
  4.663377E-01
  4.656961E-01
  4.671676E-01
  4.668496E-01
  4.682955E-01
  4.677733E-01
  4.690215E-01
  4.684044E-01
  4.696257E-01
  4.689223E-01
  4.698705E-01
  4.686721E-01
  4.690008E-01
  4.672552E-01
  4.673168E-01
  4.657061E-01
  4.662854E-01
  4.654226E-01
  4.667574E-01
  4.664504E-01
  4.680162E-01
  4.676004E-01
  4.687988E-01
  4.678960E-01
  4.686407E-01
  4.674458E-01
  4.681373E-01
  4.671354E-01
  4.681950E-01
  4.675976E-01
  4.689260E-01
  4.683112E-01
  4.692669E-01
  4.679775E-01
  4.681308E-01
  4.661568E-01
  4.659782E-01
  4.641636E-01
  4.646255E-01
  4.664783E-01
  4.673398E-01
  4.668651E-01
  4.679309E-01
  4.675175E-01
  4.685029E-01
  4.679115E-01
  4.686844E-01
  4.678967E-01
  4.685134E-01
  4.676181E-01
  4.681962E-01
  4.673783E-01
  4.682040E-01
  4.678153E-01
  4.691727E-01
  4.692426E-01
  4.707695E-01
  4.705644E-01
  4.713706E-01
  4.701832E-01
  4.700576E-01
  4.683044E-01
  4.681668E-01
  4.669408E-01
  4.676671E-01
  4.673435E-01
  4.687362E-01
  4.686850E-01
  4.699461E-01
  4.694685E-01
  4.701740E-01
  4.691693E-01
  4.694826E-01
  4.682616E-01
  4.685197E-01
  4.673580E-01
  4.677404E-01
  4.667366E-01
  4.673032E-01
  4.665158E-01
  4.673275E-01
  4.667838E-01
  4.677814E-01
  4.673050E-01
  4.682202E-01
  4.675348E-01
  4.681941E-01
  4.673153E-01
  4.679378E-01
  4.672159E-01
  4.681484E-01
  4.677821E-01
  4.689818E-01
  4.686862E-01
  4.697196E-01
  4.690619E-01
  4.696388E-01
  4.685492E-01
  4.688117E-01
  4.675689E-01
  4.678389E-01
  4.667398E-01
  4.672585E-01
  4.644589E-01
  4.656055E-01
  4.657463E-01
  4.672890E-01
  4.675091E-01
  4.688325E-01
  4.686069E-01
  4.693591E-01
  4.685460E-01
  4.688003E-01
  4.676743E-01
  4.678751E-01
  4.669918E-01
  4.677071E-01
  4.675077E-01
  4.689011E-01
  4.691607E-01
  4.706076E-01
  4.704278E-01
  4.710043E-01
  4.697361E-01
  4.693112E-01
  4.674215E-01
  4.669268E-01
  4.655033E-01
  4.658166E-01
  4.652563E-01
  4.662320E-01
  4.660082E-01
  4.670321E-01
  4.667157E-01
  4.676601E-01
  4.673442E-01
  4.683163E-01
  4.679284E-01
  4.686208E-01
  4.677399E-01
  4.678488E-01
  4.664959E-01
  4.664303E-01
  4.652813E-01
  4.657347E-01
  4.652429E-01
  4.662795E-01
  4.661349E-01
  4.672241E-01
  4.668854E-01
  4.676508E-01
  4.669907E-01
  4.675410E-01
  4.668256E-01
  4.674808E-01
  4.669867E-01
  4.679022E-01
  4.676097E-01
  4.685710E-01
  4.681012E-01
  4.686546E-01
  4.676158E-01
  4.675770E-01
  4.660922E-01
  4.658998E-01
  4.646250E-01
  4.649768E-01
  4.676261E-01
  4.681299E-01
  4.677378E-01
  4.681560E-01
  4.676807E-01
  4.680104E-01
  4.674381E-01
  4.676713E-01
  4.670202E-01
  4.672120E-01
  4.665783E-01
  4.668739E-01
  4.664632E-01
  4.671222E-01
  4.671947E-01
  4.683674E-01
  4.688304E-01
  4.700985E-01
  4.702460E-01
  4.707985E-01
  4.699905E-01
  4.696136E-01
  4.681777E-01
  4.676520E-01
  4.665613E-01
  4.667298E-01
  4.664438E-01
  4.672908E-01
  4.673998E-01
  4.683128E-01
  4.682106E-01
  4.687420E-01
  4.682050E-01
  4.683455E-01
  4.675259E-01
  4.675241E-01
  4.667079E-01
  4.668401E-01
  4.662584E-01
  4.666833E-01
  4.663996E-01
  4.670673E-01
  4.669107E-01
  4.675459E-01
  4.671915E-01
  4.675116E-01
  4.668240E-01
  4.669172E-01
  4.662136E-01
  4.665421E-01
  4.662759E-01
  4.671137E-01
  4.672603E-01
  4.682694E-01
  4.682821E-01
  4.688971E-01
  4.683932E-01
  4.685443E-01
  4.677713E-01
  4.679027E-01
  4.673140E-01
  4.677220E-01
  4.673822E-01
  4.679357E-01
  4.660492E-01
  4.666865E-01
  4.669715E-01
  4.675985E-01
  4.677317E-01
  4.680991E-01
  4.679001E-01
  4.679014E-01
  4.673549E-01
  4.670977E-01
  4.664599E-01
  4.663410E-01
  4.660882E-01
  4.665514E-01
  4.669610E-01
  4.680042E-01
  4.687418E-01
  4.697333E-01
  4.699965E-01
  4.701581E-01
  4.694092E-01
  4.686161E-01
  4.672072E-01
  4.662059E-01
  4.650624E-01
  4.646807E-01
  4.643028E-01
  4.646246E-01
  4.647607E-01
  4.653926E-01
  4.657021E-01
  4.664466E-01
  4.668258E-01
  4.675411E-01
  4.677067E-01
  4.679843E-01
  4.675517E-01
  4.672353E-01
  4.664126E-01
  4.660498E-01
  4.655331E-01
  4.656966E-01
  4.657132E-01
  4.662183E-01
  4.662836E-01
  4.665751E-01
  4.662982E-01
  4.662867E-01
  4.658757E-01
  4.659449E-01
  4.657887E-01
  4.661906E-01
  4.663348E-01
  4.669158E-01
  4.670681E-01
  4.674793E-01
  4.673175E-01
  4.673386E-01
  4.668033E-01
  4.665651E-01
  4.659596E-01
  4.658669E-01
  4.655880E-01
  4.659172E-01
  4.695163E-01
  4.692683E-01
  4.691579E-01
  4.684012E-01
  4.679627E-01
  4.670786E-01
  4.666823E-01
  4.659572E-01
  4.657867E-01
  4.653209E-01
  4.654291E-01
  4.652639E-01
  4.657056E-01
  4.659113E-01
  4.667418E-01
  4.672970E-01
  4.683451E-01
  4.688842E-01
  4.696147E-01
  4.695446E-01
  4.694809E-01
  4.686141E-01
  4.679528E-01
  4.668390E-01
  4.663309E-01
  4.657063E-01
  4.658762E-01
  4.659420E-01
  4.666613E-01
  4.670378E-01
  4.677947E-01
  4.679566E-01
  4.683119E-01
  4.679816E-01
  4.678678E-01
  4.672024E-01
  4.669686E-01
  4.664274E-01
  4.665260E-01
  4.664298E-01
  4.669534E-01
  4.671266E-01
  4.676642E-01
  4.675652E-01
  4.676022E-01
  4.669148E-01
  4.664638E-01
  4.655660E-01
  4.652844E-01
  4.649180E-01
  4.653877E-01
  4.657671E-01
  4.667456E-01
  4.672429E-01
  4.679306E-01
  4.678566E-01
  4.679202E-01
  4.674095E-01
  4.673832E-01
  4.671466E-01
  4.676295E-01
  4.679198E-01
  4.687325E-01
  4.690270E-01
  4.679882E-01
  4.676522E-01
  4.683515E-01
  4.676642E-01
  4.680212E-01
  4.670632E-01
  4.672374E-01
  4.661712E-01
  4.663011E-01
  4.652692E-01
  4.655492E-01
  4.648162E-01
  4.655397E-01
  4.653366E-01
  4.665729E-01
  4.667467E-01
  4.681259E-01
  4.681563E-01
  4.691110E-01
  4.684982E-01
  4.687012E-01
  4.673710E-01
  4.670389E-01
  4.654702E-01
  4.652407E-01
  4.640727E-01
  4.644284E-01
  4.638934E-01
  4.648222E-01
  4.647487E-01
  4.660197E-01
  4.661660E-01
  4.675026E-01
  4.675032E-01
  4.684433E-01
  4.678307E-01
  4.680750E-01
  4.668871E-01
  4.668667E-01
  4.658094E-01
  4.662436E-01
  4.657601E-01
  4.666365E-01
  4.662782E-01
  4.669233E-01
  4.660956E-01
  4.662502E-01
  4.651278E-01
  4.653097E-01
  4.645299E-01
  4.652477E-01
  4.650206E-01
  4.661477E-01
  4.660922E-01
  4.671399E-01
  4.668083E-01
  4.674782E-01
  4.667762E-01
  4.671834E-01
  4.663972E-01
  4.669197E-01
  4.664067E-01
  4.672633E-01
  4.670227E-01
  4.712024E-01
  4.699070E-01
  4.702507E-01
  4.682606E-01
  4.681879E-01
  4.661010E-01
  4.662101E-01
  4.644953E-01
  4.650700E-01
  4.638363E-01
  4.648591E-01
  4.640183E-01
  4.653736E-01
  4.648071E-01
  4.663779E-01
  4.659575E-01
  4.675823E-01
  4.670938E-01
  4.685054E-01
  4.676613E-01
  4.686179E-01
  4.673020E-01
  4.678740E-01
  4.663551E-01
  4.669601E-01
  4.657069E-01
  4.667509E-01
  4.660111E-01
  4.675274E-01
  4.671095E-01
  4.687141E-01
  4.681131E-01
  4.692868E-01
  4.680986E-01
  4.686755E-01
  4.670464E-01
  4.674725E-01
  4.660374E-01
  4.669520E-01
  4.661532E-01
  4.676495E-01
  4.671805E-01
  4.686249E-01
  4.677063E-01
  4.684156E-01
  4.666915E-01
  4.667812E-01
  4.648378E-01
  4.652063E-01
  4.639812E-01
  4.653067E-01
  4.650003E-01
  4.669462E-01
  4.668081E-01
  4.684728E-01
  4.677579E-01
  4.687960E-01
  4.676509E-01
  4.686104E-01
  4.677459E-01
  4.692052E-01
  4.688286E-01
  4.705340E-01
  4.700204E-01
  4.691480E-01
  4.679278E-01
  4.689681E-01
  4.673973E-01
  4.681294E-01
  4.663627E-01
  4.670235E-01
  4.652806E-01
  4.660257E-01
  4.644194E-01
  4.653734E-01
  4.640699E-01
  4.654107E-01
  4.645218E-01
  4.662187E-01
  4.655460E-01
  4.672755E-01
  4.664571E-01
  4.679042E-01
  4.667228E-01
  4.677829E-01
  4.662451E-01
  4.670346E-01
  4.653624E-01
  4.661840E-01
  4.647043E-01
  4.658351E-01
  4.647192E-01
  4.662127E-01
  4.654247E-01
  4.671898E-01
  4.665832E-01
  4.683803E-01
  4.675891E-01
  4.689576E-01
  4.675542E-01
  4.682858E-01
  4.664323E-01
  4.670731E-01
  4.655324E-01
  4.667685E-01
  4.658591E-01
  4.674952E-01
  4.665848E-01
  4.678218E-01
  4.662846E-01
  4.669269E-01
  4.650633E-01
  4.657661E-01
  4.643188E-01
  4.656461E-01
  4.648410E-01
  4.666694E-01
  4.661386E-01
  4.680025E-01
  4.673068E-01
  4.688685E-01
  4.678082E-01
  4.690252E-01
  4.677195E-01
  4.688462E-01
  4.676090E-01
  4.689015E-01
  4.678193E-01
  4.716599E-01
  4.698921E-01
  4.703022E-01
  4.680168E-01
  4.681615E-01
  4.658943E-01
  4.662960E-01
  4.644344E-01
  4.652940E-01
  4.638684E-01
  4.651019E-01
  4.639764E-01
  4.654397E-01
  4.644823E-01
  4.660596E-01
  4.651676E-01
  4.667659E-01
  4.658524E-01
  4.673867E-01
  4.663688E-01
  4.677680E-01
  4.666059E-01
  4.678834E-01
  4.666558E-01
  4.679485E-01
  4.668220E-01
  4.682841E-01
  4.673561E-01
  4.689889E-01
  4.681383E-01
  4.696940E-01
  4.685754E-01
  4.696854E-01
  4.680203E-01
  4.686169E-01
  4.666289E-01
  4.672200E-01
  4.655876E-01
  4.668282E-01
  4.659704E-01
  4.678865E-01
  4.673943E-01
  4.692374E-01
  4.682335E-01
  4.692626E-01
  4.673793E-01
  4.677288E-01
  4.655754E-01
  4.661499E-01
  4.646516E-01
  4.661218E-01
  4.655123E-01
  4.676409E-01
  4.673262E-01
  4.693748E-01
  4.687051E-01
  4.702910E-01
  4.692245E-01
  4.705999E-01
  4.695386E-01
  4.710661E-01
  4.701661E-01
  4.717135E-01
  4.705899E-01
  4.688612E-01
  4.677435E-01
  4.684655E-01
  4.673094E-01
  4.679709E-01
  4.667709E-01
  4.674059E-01
  4.661716E-01
  4.667484E-01
  4.654546E-01
  4.660294E-01
  4.648506E-01
  4.656748E-01
  4.648342E-01
  4.659930E-01
  4.653891E-01
  4.666333E-01
  4.659679E-01
  4.670530E-01
  4.661944E-01
  4.671044E-01
  4.661207E-01
  4.669712E-01
  4.659972E-01
  4.669161E-01
  4.660425E-01
  4.670574E-01
  4.662480E-01
  4.672950E-01
  4.665130E-01
  4.676143E-01
  4.669128E-01
  4.680681E-01
  4.673083E-01
  4.682288E-01
  4.670749E-01
  4.675619E-01
  4.661189E-01
  4.666219E-01
  4.655467E-01
  4.666614E-01
  4.662151E-01
  4.677288E-01
  4.672963E-01
  4.684429E-01
  4.674176E-01
  4.679764E-01
  4.665714E-01
  4.670580E-01