# vtk DataFile Version 2.0
title
ASCII
DATASET STRUCTURED_GRID
DIMENSIONS   64   64    1
POINTS   4096  float
  0.000000E+00  0.000000E+00  0.000000E+00
  0.000000E+00  3.906250E-01  0.000000E+00
  0.000000E+00  7.812500E-01  0.000000E+00
  0.000000E+00  1.171875E+00  0.000000E+00
  0.000000E+00  1.562500E+00  0.000000E+00
  0.000000E+00  1.953125E+00  0.000000E+00
  0.000000E+00  2.343750E+00  0.000000E+00
  0.000000E+00  2.734375E+00  0.000000E+00
  0.000000E+00  3.125000E+00  0.000000E+00
  0.000000E+00  3.515625E+00  0.000000E+00
  0.000000E+00  3.906250E+00  0.000000E+00
  0.000000E+00  4.296875E+00  0.000000E+00
  0.000000E+00  4.687500E+00  0.000000E+00
  0.000000E+00  5.078125E+00  0.000000E+00
  0.000000E+00  5.468750E+00  0.000000E+00
  0.000000E+00  5.859375E+00  0.000000E+00
  0.000000E+00  6.250000E+00  0.000000E+00
  0.000000E+00  6.640625E+00  0.000000E+00
  0.000000E+00  7.031250E+00  0.000000E+00
  0.000000E+00  7.421875E+00  0.000000E+00
  0.000000E+00  7.812500E+00  0.000000E+00
  0.000000E+00  8.203125E+00  0.000000E+00
  0.000000E+00  8.593750E+00  0.000000E+00
  0.000000E+00  8.984375E+00  0.000000E+00
  0.000000E+00  9.375000E+00  0.000000E+00
  0.000000E+00  9.765625E+00  0.000000E+00
  0.000000E+00  1.015625E+01  0.000000E+00
  0.000000E+00  1.054688E+01  0.000000E+00
  0.000000E+00  1.093750E+01  0.000000E+00
  0.000000E+00  1.132812E+01  0.000000E+00
  0.000000E+00  1.171875E+01  0.000000E+00
  0.000000E+00  1.210938E+01  0.000000E+00
  0.000000E+00  1.250000E+01  0.000000E+00
  0.000000E+00  1.289062E+01  0.000000E+00
  0.000000E+00  1.328125E+01  0.000000E+00
  0.000000E+00  1.367188E+01  0.000000E+00
  0.000000E+00  1.406250E+01  0.000000E+00
  0.000000E+00  1.445312E+01  0.000000E+00
  0.000000E+00  1.484375E+01  0.000000E+00
  0.000000E+00  1.523438E+01  0.000000E+00
  0.000000E+00  1.562500E+01  0.000000E+00
  0.000000E+00  1.601562E+01  0.000000E+00
  0.000000E+00  1.640625E+01  0.000000E+00
  0.000000E+00  1.679688E+01  0.000000E+00
  0.000000E+00  1.718750E+01  0.000000E+00
  0.000000E+00  1.757812E+01  0.000000E+00
  0.000000E+00  1.796875E+01  0.000000E+00
  0.000000E+00  1.835938E+01  0.000000E+00
  0.000000E+00  1.875000E+01  0.000000E+00
  0.000000E+00  1.914062E+01  0.000000E+00
  0.000000E+00  1.953125E+01  0.000000E+00
  0.000000E+00  1.992188E+01  0.000000E+00
  0.000000E+00  2.031250E+01  0.000000E+00
  0.000000E+00  2.070312E+01  0.000000E+00
  0.000000E+00  2.109375E+01  0.000000E+00
  0.000000E+00  2.148438E+01  0.000000E+00
  0.000000E+00  2.187500E+01  0.000000E+00
  0.000000E+00  2.226562E+01  0.000000E+00
  0.000000E+00  2.265625E+01  0.000000E+00
  0.000000E+00  2.304688E+01  0.000000E+00
  0.000000E+00  2.343750E+01  0.000000E+00
  0.000000E+00  2.382812E+01  0.000000E+00
  0.000000E+00  2.421875E+01  0.000000E+00
  0.000000E+00  2.460938E+01  0.000000E+00
  3.906250E-01  0.000000E+00  0.000000E+00
  3.906250E-01  3.906250E-01  0.000000E+00
  3.906250E-01  7.812500E-01  0.000000E+00
  3.906250E-01  1.171875E+00  0.000000E+00
  3.906250E-01  1.562500E+00  0.000000E+00
  3.906250E-01  1.953125E+00  0.000000E+00
  3.906250E-01  2.343750E+00  0.000000E+00
  3.906250E-01  2.734375E+00  0.000000E+00
  3.906250E-01  3.125000E+00  0.000000E+00
  3.906250E-01  3.515625E+00  0.000000E+00
  3.906250E-01  3.906250E+00  0.000000E+00
  3.906250E-01  4.296875E+00  0.000000E+00
  3.906250E-01  4.687500E+00  0.000000E+00
  3.906250E-01  5.078125E+00  0.000000E+00
  3.906250E-01  5.468750E+00  0.000000E+00
  3.906250E-01  5.859375E+00  0.000000E+00
  3.906250E-01  6.250000E+00  0.000000E+00
  3.906250E-01  6.640625E+00  0.000000E+00
  3.906250E-01  7.031250E+00  0.000000E+00
  3.906250E-01  7.421875E+00  0.000000E+00
  3.906250E-01  7.812500E+00  0.000000E+00
  3.906250E-01  8.203125E+00  0.000000E+00
  3.906250E-01  8.593750E+00  0.000000E+00
  3.906250E-01  8.984375E+00  0.000000E+00
  3.906250E-01  9.375000E+00  0.000000E+00
  3.906250E-01  9.765625E+00  0.000000E+00
  3.906250E-01  1.015625E+01  0.000000E+00
  3.906250E-01  1.054688E+01  0.000000E+00
  3.906250E-01  1.093750E+01  0.000000E+00
  3.906250E-01  1.132812E+01  0.000000E+00
  3.906250E-01  1.171875E+01  0.000000E+00
  3.906250E-01  1.210938E+01  0.000000E+00
  3.906250E-01  1.250000E+01  0.000000E+00
  3.906250E-01  1.289062E+01  0.000000E+00
  3.906250E-01  1.328125E+01  0.000000E+00
  3.906250E-01  1.367188E+01  0.000000E+00
  3.906250E-01  1.406250E+01  0.000000E+00
  3.906250E-01  1.445312E+01  0.000000E+00
  3.906250E-01  1.484375E+01  0.000000E+00
  3.906250E-01  1.523438E+01  0.000000E+00
  3.906250E-01  1.562500E+01  0.000000E+00
  3.906250E-01  1.601562E+01  0.000000E+00
  3.906250E-01  1.640625E+01  0.000000E+00
  3.906250E-01  1.679688E+01  0.000000E+00
  3.906250E-01  1.718750E+01  0.000000E+00
  3.906250E-01  1.757812E+01  0.000000E+00
  3.906250E-01  1.796875E+01  0.000000E+00
  3.906250E-01  1.835938E+01  0.000000E+00
  3.906250E-01  1.875000E+01  0.000000E+00
  3.906250E-01  1.914062E+01  0.000000E+00
  3.906250E-01  1.953125E+01  0.000000E+00
  3.906250E-01  1.992188E+01  0.000000E+00
  3.906250E-01  2.031250E+01  0.000000E+00
  3.906250E-01  2.070312E+01  0.000000E+00
  3.906250E-01  2.109375E+01  0.000000E+00
  3.906250E-01  2.148438E+01  0.000000E+00
  3.906250E-01  2.187500E+01  0.000000E+00
  3.906250E-01  2.226562E+01  0.000000E+00
  3.906250E-01  2.265625E+01  0.000000E+00
  3.906250E-01  2.304688E+01  0.000000E+00
  3.906250E-01  2.343750E+01  0.000000E+00
  3.906250E-01  2.382812E+01  0.000000E+00
  3.906250E-01  2.421875E+01  0.000000E+00
  3.906250E-01  2.460938E+01  0.000000E+00
  7.812500E-01  0.000000E+00  0.000000E+00
  7.812500E-01  3.906250E-01  0.000000E+00
  7.812500E-01  7.812500E-01  0.000000E+00
  7.812500E-01  1.171875E+00  0.000000E+00
  7.812500E-01  1.562500E+00  0.000000E+00
  7.812500E-01  1.953125E+00  0.000000E+00
  7.812500E-01  2.343750E+00  0.000000E+00
  7.812500E-01  2.734375E+00  0.000000E+00
  7.812500E-01  3.125000E+00  0.000000E+00
  7.812500E-01  3.515625E+00  0.000000E+00
  7.812500E-01  3.906250E+00  0.000000E+00
  7.812500E-01  4.296875E+00  0.000000E+00
  7.812500E-01  4.687500E+00  0.000000E+00
  7.812500E-01  5.078125E+00  0.000000E+00
  7.812500E-01  5.468750E+00  0.000000E+00
  7.812500E-01  5.859375E+00  0.000000E+00
  7.812500E-01  6.250000E+00  0.000000E+00
  7.812500E-01  6.640625E+00  0.000000E+00
  7.812500E-01  7.031250E+00  0.000000E+00
  7.812500E-01  7.421875E+00  0.000000E+00
  7.812500E-01  7.812500E+00  0.000000E+00
  7.812500E-01  8.203125E+00  0.000000E+00
  7.812500E-01  8.593750E+00  0.000000E+00
  7.812500E-01  8.984375E+00  0.000000E+00
  7.812500E-01  9.375000E+00  0.000000E+00
  7.812500E-01  9.765625E+00  0.000000E+00
  7.812500E-01  1.015625E+01  0.000000E+00
  7.812500E-01  1.054688E+01  0.000000E+00
  7.812500E-01  1.093750E+01  0.000000E+00
  7.812500E-01  1.132812E+01  0.000000E+00
  7.812500E-01  1.171875E+01  0.000000E+00
  7.812500E-01  1.210938E+01  0.000000E+00
  7.812500E-01  1.250000E+01  0.000000E+00
  7.812500E-01  1.289062E+01  0.000000E+00
  7.812500E-01  1.328125E+01  0.000000E+00
  7.812500E-01  1.367188E+01  0.000000E+00
  7.812500E-01  1.406250E+01  0.000000E+00
  7.812500E-01  1.445312E+01  0.000000E+00
  7.812500E-01  1.484375E+01  0.000000E+00
  7.812500E-01  1.523438E+01  0.000000E+00
  7.812500E-01  1.562500E+01  0.000000E+00
  7.812500E-01  1.601562E+01  0.000000E+00
  7.812500E-01  1.640625E+01  0.000000E+00
  7.812500E-01  1.679688E+01  0.000000E+00
  7.812500E-01  1.718750E+01  0.000000E+00
  7.812500E-01  1.757812E+01  0.000000E+00
  7.812500E-01  1.796875E+01  0.000000E+00
  7.812500E-01  1.835938E+01  0.000000E+00
  7.812500E-01  1.875000E+01  0.000000E+00
  7.812500E-01  1.914062E+01  0.000000E+00
  7.812500E-01  1.953125E+01  0.000000E+00
  7.812500E-01  1.992188E+01  0.000000E+00
  7.812500E-01  2.031250E+01  0.000000E+00
  7.812500E-01  2.070312E+01  0.000000E+00
  7.812500E-01  2.109375E+01  0.000000E+00
  7.812500E-01  2.148438E+01  0.000000E+00
  7.812500E-01  2.187500E+01  0.000000E+00
  7.812500E-01  2.226562E+01  0.000000E+00
  7.812500E-01  2.265625E+01  0.000000E+00
  7.812500E-01  2.304688E+01  0.000000E+00
  7.812500E-01  2.343750E+01  0.000000E+00
  7.812500E-01  2.382812E+01  0.000000E+00
  7.812500E-01  2.421875E+01  0.000000E+00
  7.812500E-01  2.460938E+01  0.000000E+00
  1.171875E+00  0.000000E+00  0.000000E+00
  1.171875E+00  3.906250E-01  0.000000E+00
  1.171875E+00  7.812500E-01  0.000000E+00
  1.171875E+00  1.171875E+00  0.000000E+00
  1.171875E+00  1.562500E+00  0.000000E+00
  1.171875E+00  1.953125E+00  0.000000E+00
  1.171875E+00  2.343750E+00  0.000000E+00
  1.171875E+00  2.734375E+00  0.000000E+00
  1.171875E+00  3.125000E+00  0.000000E+00
  1.171875E+00  3.515625E+00  0.000000E+00
  1.171875E+00  3.906250E+00  0.000000E+00
  1.171875E+00  4.296875E+00  0.000000E+00
  1.171875E+00  4.687500E+00  0.000000E+00
  1.171875E+00  5.078125E+00  0.000000E+00
  1.171875E+00  5.468750E+00  0.000000E+00
  1.171875E+00  5.859375E+00  0.000000E+00
  1.171875E+00  6.250000E+00  0.000000E+00
  1.171875E+00  6.640625E+00  0.000000E+00
  1.171875E+00  7.031250E+00  0.000000E+00
  1.171875E+00  7.421875E+00  0.000000E+00
  1.171875E+00  7.812500E+00  0.000000E+00
  1.171875E+00  8.203125E+00  0.000000E+00
  1.171875E+00  8.593750E+00  0.000000E+00
  1.171875E+00  8.984375E+00  0.000000E+00
  1.171875E+00  9.375000E+00  0.000000E+00
  1.171875E+00  9.765625E+00  0.000000E+00
  1.171875E+00  1.015625E+01  0.000000E+00
  1.171875E+00  1.054688E+01  0.000000E+00
  1.171875E+00  1.093750E+01  0.000000E+00
  1.171875E+00  1.132812E+01  0.000000E+00
  1.171875E+00  1.171875E+01  0.000000E+00
  1.171875E+00  1.210938E+01  0.000000E+00
  1.171875E+00  1.250000E+01  0.000000E+00
  1.171875E+00  1.289062E+01  0.000000E+00
  1.171875E+00  1.328125E+01  0.000000E+00
  1.171875E+00  1.367188E+01  0.000000E+00
  1.171875E+00  1.406250E+01  0.000000E+00
  1.171875E+00  1.445312E+01  0.000000E+00
[...]
POINT_DATA   4096
SCALARS CON  float  1
LOOKUP_TABLE default
  4.695312E-01
  4.684089E-01
  4.707122E-01
  4.692830E-01
  4.710339E-01
  4.690266E-01
  4.703620E-01
  4.681911E-01
  4.695946E-01
  4.676359E-01
  4.693023E-01
  4.676035E-01
  4.695202E-01
  4.680749E-01
  4.702414E-01
  4.689917E-01
  4.712145E-01
  4.698000E-01
  4.716037E-01
  4.695623E-01
  4.706555E-01
  4.679858E-01
  4.686870E-01
  4.659508E-01
  4.669073E-01
  4.646573E-01
  4.661892E-01
  4.644652E-01
  4.663852E-01
  4.648953E-01
  4.669400E-01
  4.655323E-01
  4.676613E-01
  4.663335E-01
  4.684824E-01
  4.670416E-01
  4.688997E-01
  4.670089E-01
  4.683484E-01
  4.660101E-01
  4.671170E-01
  4.648597E-01
  4.663781E-01
  4.647852E-01
  4.670639E-01
  4.661308E-01
  4.687892E-01
  4.678504E-01
  4.701296E-01
  4.685739E-01
  4.702183E-01
  4.682374E-01
  4.698097E-01
  4.681046E-01
  4.701418E-01
  4.688410E-01
  4.709914E-01
  4.694096E-01
  4.709639E-01
  4.687036E-01
  4.697832E-01
  4.674632E-01
  4.689383E-01
  4.673200E-01
  4.712968E-01
  4.705544E-01
  4.717013E-01
  4.703437E-01
  4.707921E-01
  4.689001E-01
  4.691550E-01
  4.674526E-01
  4.681855E-01
  4.670741E-01
  4.683377E-01
  4.675956E-01
  4.690614E-01
  4.684156E-01
  4.699420E-01
  4.693456E-01
  4.708705E-01
  4.701422E-01
  4.713387E-01
  4.700839E-01
  4.706400E-01
  4.687814E-01
  4.689356E-01
  4.669961E-01
  4.674188E-01
  4.660239E-01
  4.671168E-01
  4.663393E-01
  4.678453E-01
  4.671967E-01
  4.685574E-01
  4.675777E-01
  4.685524E-01
  4.672561E-01
  4.680586E-01
  4.667395E-01
  4.676124E-01
  4.663744E-01
  4.672751E-01
  4.660013E-01
  4.668524E-01
  4.656007E-01
  4.666215E-01
  4.657068E-01
  4.671739E-01
  4.666926E-01
  4.684415E-01
  4.679974E-01
  4.695382E-01
  4.687405E-01
  4.699443E-01
  4.689784E-01
  4.702528E-01
  4.695464E-01
  4.711162E-01
  4.705550E-01
  4.719902E-01
  4.710089E-01
  4.718701E-01
  4.703764E-01
  4.709914E-01
  4.696174E-01
  4.706622E-01
  4.698359E-01
  4.681225E-01
  4.685932E-01
  4.695368E-01
  4.697003E-01
  4.700077E-01
  4.694737E-01
  4.692677E-01
  4.685366E-01
  4.684417E-01
  4.680207E-01
  4.682986E-01
  4.682161E-01
  4.687668E-01
  4.689064E-01
  4.696448E-01
  4.699157E-01
  4.706617E-01
  4.707335E-01
  4.710240E-01
  4.704115E-01
  4.699057E-01
  4.685625E-01
  4.675738E-01
  4.661198E-01
  4.654152E-01
  4.645566E-01
  4.646020E-01
  4.644745E-01
  4.650993E-01
  4.653408E-01
  4.661381E-01
  4.664110E-01
  4.671526E-01
  4.673035E-01
  4.678391E-01
  4.676676E-01
  4.677549E-01
  4.670520E-01
  4.666266E-01
  4.655672E-01
  4.650699E-01
  4.642947E-01
  4.644185E-01
  4.644852E-01
  4.654824E-01
  4.662414E-01
  4.675762E-01
  4.682414E-01
  4.691045E-01
  4.690956E-01
  4.693268E-01
  4.689539E-01
  4.692052E-01
  4.691887E-01
  4.699300E-01
  4.702581E-01
  4.709637E-01
  4.707959E-01
  4.706695E-01
  4.696219E-01
  4.689042E-01
  4.677950E-01
  4.675855E-01
  4.673733E-01
  4.695041E-01
  4.703634E-01
  4.700984E-01
  4.703501E-01
  4.693426E-01
  4.689911E-01
  4.677327E-01
  4.675552E-01
  4.668117E-01
  4.673012E-01
  4.671732E-01
  4.680928E-01
  4.681839E-01
  4.691732E-01
  4.692719E-01
  4.702536E-01
  4.703041E-01
  4.711169E-01
  4.707988E-01
  4.710268E-01
  4.699865E-01
  4.695163E-01
  4.679913E-01
  4.673970E-01
  4.661581E-01
  4.661924E-01
  4.657617E-01
  4.665787E-01
  4.667204E-01
  4.677873E-01
  4.678427E-01
  4.685645E-01
  4.681498E-01
  4.684172E-01
  4.676654E-01
  4.677489E-01
  4.669400E-01
  4.670341E-01
  4.662516E-01
  4.663757E-01
  4.656603E-01
  4.659452E-01
  4.655245E-01
  4.662243E-01
  4.662590E-01
  4.673315E-01
  4.675392E-01
  4.685298E-01
  4.684412E-01
  4.690510E-01
  4.686663E-01
  4.691996E-01
  4.689934E-01
  4.698718E-01
  4.699962E-01
  4.709940E-01
  4.709055E-01
  4.713748E-01
  4.706016E-01
  4.704724E-01
  4.694120E-01
  4.694173E-01
  4.688569E-01
  4.695214E-01
  4.661782E-01
  4.680378E-01
  4.677225E-01
  4.693214E-01
  4.683920E-01
  4.692900E-01
  4.678291E-01
  4.685140E-01
  4.671638E-01
  4.681766E-01
  4.672262E-01
  4.685994E-01
  4.679278E-01
  4.695110E-01
  4.690032E-01
  4.706916E-01
  4.701672E-01
  4.716295E-01
  4.706105E-01
  4.713290E-01
  4.694347E-01
  4.693378E-01
  4.668922E-01
  4.666544E-01
  4.645142E-01
  4.649437E-01
  4.636623E-01
  4.649471E-01
  4.643612E-01
  4.661035E-01
  4.657377E-01
  4.675117E-01
  4.670444E-01
  4.686121E-01
  4.678311E-01
  4.689658E-01
  4.676447E-01
  4.681948E-01
  4.663579E-01
  4.665968E-01
  4.647655E-01
  4.653696E-01
  4.642105E-01
  4.656500E-01
  4.652894E-01
  4.672898E-01
  4.671118E-01
  4.688830E-01
  4.681554E-01
  4.692508E-01
  4.679580E-01
  4.687955E-01
  4.676309E-01
  4.689046E-01
  4.682696E-01
  4.698940E-01
  4.692139E-01
  4.703349E-01
  4.688253E-01
  4.690774E-01
  4.669895E-01
  4.671913E-01
  4.656246E-01
  4.667465E-01
  4.676641E-01
  4.695179E-01
  4.683207E-01
  4.696795E-01
  4.678460E-01
  4.686695E-01
  4.665994E-01
  4.675623E-01
  4.659434E-01
  4.675041E-01
  4.664447E-01
  4.684019E-01
  4.675502E-01
  4.695833E-01
  4.687561E-01
  4.708012E-01
  4.699386E-01
  4.718104E-01
  4.705503E-01
  4.717834E-01
  4.697321E-01
  4.702009E-01
  4.676220E-01
  4.679620E-01
  4.657055E-01
  4.667420E-01
  4.653759E-01
  4.672730E-01
  4.665397E-01
  4.687239E-01
  4.679175E-01
  4.697478E-01
  4.684425E-01
  4.697716E-01
  4.680689E-01
  4.691494E-01
  4.673340E-01
  4.683932E-01
  4.666061E-01
  4.677294E-01
  4.660604E-01
  4.673859E-01
  4.660131E-01
  4.676936E-01
  4.666528E-01
  4.685401E-01
  4.675029E-01
  4.691789E-01
  4.677881E-01
  4.691052E-01
  4.675000E-01
  4.688456E-01
  4.675110E-01
  4.692611E-01
  4.682869E-01
  4.701778E-01
  4.690274E-01
  4.704533E-01
  4.686990E-01
  4.695988E-01
  4.675945E-01
  4.686184E-01
  4.670668E-01
  4.686963E-01
  4.646505E-01
  4.670185E-01
  4.661927E-01
  4.684900E-01
  4.672418E-01
  4.689712E-01
  4.672273E-01
  4.686779E-01
  4.669053E-01
  4.685171E-01
  4.669971E-01
  4.688741E-01
  4.676012E-01
  4.697126E-01
  4.686636E-01
  4.709501E-01
  4.699406E-01
  4.720270E-01
  4.705134E-01
  4.718182E-01
  4.693805E-01
  4.698317E-01
  4.668333E-01
  4.671693E-01
  4.645298E-01
  4.655964E-01
  4.638676E-01
  4.658151E-01
  4.647780E-01
  4.671571E-01
  4.663050E-01
  4.686827E-01
  4.677019E-01
  4.698503E-01
  4.685327E-01
  4.702233E-01
  4.683446E-01
  4.694429E-01
  4.670615E-01
  4.678817E-01
  4.655453E-01
  4.667526E-01
  4.650672E-01
  4.670299E-01
  4.660080E-01
  4.683675E-01
  4.673755E-01
  4.694048E-01
  4.678373E-01
  4.692369E-01
  4.671938E-01
  4.684285E-01
  4.665779E-01
  4.682743E-01
  4.669563E-01
  4.690158E-01
  4.677024E-01
  4.693515E-01
  4.673231E-01
  4.681979E-01
  4.656259E-01
  4.664094E-01
  4.642607E-01
  4.658579E-01
  4.665626E-01
  4.684593E-01
  4.671655E-01
  4.688222E-01
  4.671500E-01
  4.684507E-01
  4.665872E-01
  4.679283E-01
  4.663083E-01
  4.679959E-01
  4.667105E-01
  4.686477E-01
  4.675222E-01
  4.695766E-01
  4.685736E-01
  4.707545E-01
  4.698121E-01
  4.718767E-01
  4.705514E-01
  4.719623E-01
  4.698236E-01
  4.704634E-01
  4.678193E-01
  4.683801E-01
  4.661204E-01
  4.674277E-01
  4.660741E-01
  4.682134E-01
  4.674258E-01
  4.697663E-01
  4.688243E-01
  4.707523E-01
  4.692818E-01
  4.707026E-01
  4.688409E-01
  4.700225E-01
  4.680591E-01
  4.692367E-01
  4.673305E-01
  4.686121E-01
  4.668634E-01
  4.683651E-01
  4.668882E-01
  4.686679E-01
  4.674016E-01
  4.692504E-01
  4.678726E-01
  4.694518E-01
  4.677332E-01
  4.690251E-01
  4.671873E-01
  4.685853E-01
  4.670500E-01
  4.688369E-01
  4.676250E-01
  4.695337E-01
  4.681760E-01
  4.697039E-01
  4.678523E-01
  4.689412E-01
  4.668584E-01
  4.680047E-01
  4.662461E-01
  4.678665E-01
  4.639922E-01
  4.660543E-01
  4.654462E-01
  4.677212E-01
  4.669768E-01
  4.688811E-01
  4.676853E-01
  4.691887E-01
  4.677152E-01
  4.690796E-01
  4.675907E-01
  4.690475E-01
  4.677542E-01
  4.695023E-01
  4.685584E-01
  4.706265E-01
  4.698453E-01
  4.717931E-01
  4.705431E-01
  4.717161E-01
  4.695441E-01
  4.698812E-01
  4.671899E-01
  4.674694E-01
  4.651905E-01
  4.662252E-01
  4.648334E-01
  4.666735E-01
  4.658596E-01
  4.680058E-01
  4.672690E-01
  4.693440E-01
  4.684528E-01
  4.703084E-01
  4.691103E-01
  4.705449E-01
  4.688233E-01
  4.697054E-01
  4.675271E-01
  4.681817E-01
  4.660930E-01
  4.671551E-01
  4.656968E-01
  4.674474E-01
  4.665520E-01
  4.685946E-01
  4.676562E-01
  4.693554E-01
  4.678943E-01
  4.690617E-01
  4.672283E-01
  4.682971E-01
  4.666595E-01
  4.681348E-01
  4.669479E-01
  4.687226E-01
  4.675306E-01
  4.689461E-01
  4.671240E-01
  4.678348E-01
  4.654764E-01
  4.660215E-01
  4.639531E-01
  4.651792E-01
  4.663026E-01
  4.677084E-01
  4.667978E-01
  4.682228E-01
  4.671992E-01
  4.684515E-01
  4.672735E-01
  4.684413E-01
  4.672577E-01
  4.684741E-01
  4.673626E-01
  4.686658E-01
  4.676764E-01
  4.691687E-01
  4.684408E-01
  4.702147E-01
  4.696781E-01
  4.714223E-01
  4.705475E-01
  4.716580E-01
  4.699860E-01
  4.703527E-01
  4.682162E-01
  4.685477E-01
  4.668224E-01
  4.678900E-01
  4.670118E-01
  4.688071E-01
  4.683637E-01
  4.702299E-01
  4.695299E-01
  4.709264E-01
  4.696880E-01
  4.706038E-01
  4.690209E-01
  4.697509E-01
  4.681204E-01
  4.689022E-01
  4.673889E-01
  4.683352E-01
  4.670282E-01
  4.682153E-01
  4.671588E-01
  4.685599E-01
  4.676246E-01
  4.690119E-01
  4.679238E-01
  4.690652E-01
  4.677244E-01
  4.687031E-01
  4.673599E-01
  4.685089E-01
  4.674543E-01
  4.689063E-01
  4.680527E-01
  4.695175E-01
  4.684636E-01
  4.695611E-01
  4.680740E-01
  4.687944E-01
  4.670913E-01
  4.678134E-01
  4.663218E-01
  4.673988E-01
  4.640743E-01
  4.656087E-01
  4.654077E-01
  4.673342E-01
  4.671938E-01
  4.688912E-01
  4.683282E-01
  4.695226E-01
  4.684784E-01
  4.692923E-01
  4.680262E-01
  4.688158E-01
  4.677378E-01
  4.689040E-01
  4.683122E-01
  4.699409E-01
  4.696269E-01
  4.712095E-01
  4.704661E-01
  4.712945E-01
  4.696462E-01
  4.696598E-01
  4.675140E-01
  4.674814E-01
  4.657348E-01
  4.664093E-01
  4.654667E-01
  4.668388E-01
  4.663612E-01
  4.679437E-01
  4.674815E-01
  4.689725E-01
  4.683724E-01
  4.696847E-01
  4.688294E-01
  4.697749E-01
  4.684522E-01
  4.689064E-01
  4.671940E-01
  4.674867E-01
  4.659133E-01
  4.666278E-01
  4.656518E-01
  4.669782E-01
  4.664679E-01
  4.680050E-01
  4.674231E-01
  4.686626E-01
  4.676730E-01
  4.685318E-01
  4.673068E-01
  4.681406E-01
  4.670944E-01
  4.682323E-01
  4.674862E-01
  4.687792E-01
  4.679383E-01
  4.688601E-01
  4.674422E-01
  4.677360E-01
  4.658319E-01
  4.659487E-01
  4.642608E-01
  4.649563E-01
  4.666971E-01
  4.676198E-01
  4.670536E-01
  4.680518E-01
  4.674675E-01
  4.683759E-01
  4.676618E-01
  4.684311E-01
  4.675922E-01
  4.682691E-01
  4.673908E-01
  4.681100E-01
  4.673869E-01
  4.683883E-01
  4.680448E-01
  4.694366E-01
  4.693629E-01
  4.707701E-01
  4.703801E-01
  4.711655E-01
  4.699881E-01
  4.700358E-01
  4.683875E-01
  4.683709E-01
  4.670768E-01
  4.677154E-01
  4.671758E-01
  4.684551E-01
  4.682860E-01
  4.696054E-01
  4.691841E-01
  4.700656E-01
  4.691516E-01
  4.695992E-01
  4.683814E-01
  4.686800E-01
  4.674559E-01
  4.678599E-01
  4.668194E-01
  4.674551E-01
  4.666671E-01
  4.675455E-01
  4.669531E-01
  4.679415E-01
  4.673469E-01
  4.682216E-01
  4.674391E-01
  4.681206E-01
  4.672186E-01
  4.679135E-01
  4.671713E-01
  4.681305E-01
  4.676706E-01
  4.688292E-01
  4.684075E-01
  4.694156E-01
  4.686868E-01
  4.693097E-01
  4.682147E-01
  4.685749E-01
  4.673704E-01
  4.677819E-01
  4.667605E-01
  4.674352E-01
  4.647846E-01
  4.658755E-01
  4.659438E-01
  4.673442E-01
  4.674555E-01
  4.686488E-01
  4.683653E-01
  4.690651E-01
  4.682879E-01
  4.685895E-01
  4.675917E-01
  4.679061E-01
  4.671692E-01
  4.679509E-01
  4.677842E-01
  4.690870E-01
  4.692263E-01
  4.704902E-01
  4.702007E-01
  4.707142E-01
  4.695256E-01
  4.692199E-01
  4.675039E-01
  4.670880E-01
  4.656777E-01
  4.658642E-01
  4.651674E-01
  4.659986E-01
  4.657643E-01
  4.668510E-01
  4.667086E-01
  4.677873E-01
  4.675748E-01
  4.685145E-01
  4.680607E-01
  4.686370E-01
  4.677284E-01
  4.678500E-01
  4.666123E-01
  4.666387E-01
  4.655821E-01
  4.660186E-01
  4.654793E-01
  4.663897E-01
  4.661560E-01
  4.671459E-01
  4.667865E-01
  4.675275E-01
  4.669042E-01
  4.674623E-01
  4.667932E-01
  4.674474E-01
  4.669722E-01
  4.678397E-01
  4.675060E-01
  4.683646E-01
  4.678303E-01
  4.683110E-01
  4.672953E-01
  4.673100E-01
  4.659756E-01
  4.659232E-01
  4.648158E-01
  4.652497E-01
  4.677351E-01
  4.681819E-01
  4.678566E-01
  4.681741E-01
  4.677164E-01
  4.679181E-01
  4.673704E-01
  4.675106E-01
  4.669327E-01
  4.670826E-01
  4.665723E-01
  4.668729E-01
  4.666173E-01
  4.672750E-01
  4.674373E-01
  4.684856E-01
  4.688925E-01
  4.699275E-01
  4.700048E-01
  4.704261E-01
  4.697336E-01
  4.694201E-01
  4.682221E-01
  4.677632E-01
  4.668040E-01
  4.668811E-01
  4.665907E-01
  4.672856E-01
  4.674150E-01
  4.682571E-01
  4.682662E-01
  4.687887E-01
  4.683795E-01
  4.684878E-01
  4.677519E-01
  4.676735E-01
  4.669108E-01
  4.669556E-01
  4.664312E-01
  4.667752E-01
  4.665452E-01
  4.671116E-01
  4.669767E-01
  4.674847E-01
  4.671526E-01
  4.673835E-01
  4.667864E-01
  4.668629E-01
  4.662939E-01
  4.665971E-01
  4.664017E-01
  4.671182E-01
  4.672478E-01
  4.680972E-01
  4.681260E-01
  4.686765E-01
  4.683070E-01
  4.684843E-01
  4.678712E-01
  4.679848E-01
  4.674729E-01
  4.677871E-01
  4.674908E-01
  4.679648E-01
  4.661300E-01
  4.666226E-01
  4.669699E-01
  4.674910E-01
  4.677083E-01
  4.679721E-01
  4.678530E-01
  4.677598E-01
  4.673272E-01
  4.670293E-01
  4.665589E-01
  4.664262E-01
  4.663218E-01
  4.667025E-01
  4.671555E-01
  4.680013E-01
  4.686900E-01
  4.694452E-01
  4.696948E-01
  4.697317E-01
  4.691343E-01
  4.683879E-01
  4.672502E-01
  4.663192E-01
  4.653670E-01
  4.649110E-01
  4.645841E-01
  4.647591E-01
  4.649645E-01
  4.655274E-01
  4.659773E-01
  4.666572E-01
  4.670998E-01
  4.676333E-01
  4.677757E-01
  4.678734E-01
  4.675157E-01
  4.671648E-01
  4.665333E-01
  4.661622E-01
  4.657604E-01
  4.657792E-01
  4.657854E-01
  4.660921E-01
  4.661863E-01
  4.663862E-01
  4.662581E-01
  4.662353E-01
  4.659870E-01
  4.659998E-01
  4.659333E-01
  4.662132E-01
  4.664121E-01
  4.668717E-01
  4.671063E-01
  4.674378E-01
  4.674030E-01
  4.673832E-01
  4.669985E-01
  4.667176E-01
  4.662298E-01
  4.660345E-01
  4.658032E-01
  4.659736E-01
  4.693017E-01
  4.689786E-01
  4.690097E-01
  4.682644E-01
  4.679820E-01
  4.670741E-01
  4.667807E-01
  4.659853E-01
  4.658889E-01
  4.653418E-01
  4.655267E-01
  4.652903E-01
  4.658170E-01
  4.659458E-01
  4.668303E-01
  4.672501E-01
  4.682817E-01
  4.686334E-01
  4.693475E-01
  4.691611E-01
  4.692126E-01
  4.683831E-01
  4.679621E-01
  4.669418E-01
  4.666495E-01
  4.660318E-01
  4.663039E-01
  4.662693E-01
  4.670089E-01
  4.672322E-01
  4.679822E-01
  4.679873E-01
  4.683567E-01
  4.679148E-01
  4.678768E-01
  4.671616E-01
  4.670463E-01
  4.664646E-01
  4.666539E-01
  4.664603E-01
  4.670061E-01
  4.670243E-01
  4.675608E-01
  4.673351E-01
  4.674529E-01
  4.667561E-01
  4.665010E-01
  4.656620E-01
  4.655639E-01
  4.651582E-01
  4.656575E-01
  4.658452E-01
  4.667656E-01
  4.670906E-01
  4.678488E-01
  4.677964E-01
  4.681136E-01
  4.677185E-01
  4.679045E-01
  4.676145E-01
  4.680744E-01
  4.680987E-01
  4.687754E-01
  4.688222E-01
  4.677570E-01
  4.673433E-01
  4.681039E-01
  4.674797E-01
  4.679715E-01
  4.670716E-01
  4.673228E-01
  4.662476E-01
  4.664123E-01
  4.653621E-01
  4.656836E-01
  4.649291E-01
  4.656660E-01
  4.653930E-01
  4.665926E-01
  4.666633E-01
  4.679974E-01
  4.679397E-01
  4.688839E-01
  4.682371E-01
  4.685052E-01
  4.672320E-01
  4.670510E-01
  4.655905E-01
  4.655053E-01
  4.643816E-01
  4.647879E-01
  4.642114E-01
  4.651367E-01
  4.649948E-01
  4.662363E-01
  4.662663E-01
  4.675086E-01
  4.673469E-01
  4.682117E-01
  4.675422E-01
  4.678771E-01
  4.667915E-01
  4.669391E-01
  4.659392E-01
  4.663938E-01
  4.657891E-01
  4.665645E-01
  4.660809E-01
  4.667400E-01
  4.659657E-01
  4.662929E-01
  4.652917E-01
  4.655985E-01
  4.648050E-01
  4.654890E-01
  4.651319E-01
  4.661913E-01
  4.660566E-01
  4.671429E-01
  4.668517E-01
  4.676549E-01
  4.670371E-01
  4.675582E-01
  4.667737E-01
  4.672789E-01
  4.666183E-01
  4.673340E-01
  4.668921E-01
  4.707756E-01
  4.695385E-01
  4.699547E-01
  4.681620E-01
  4.682062E-01
  4.662776E-01
  4.664148E-01
  4.647568E-01
  4.652716E-01
  4.640316E-01
  4.649579E-01
  4.640985E-01
  4.653667E-01
  4.648075E-01
  4.663240E-01
  4.659385E-01
  4.675209E-01
  4.670616E-01
  4.684169E-01
  4.675965E-01
  4.685134E-01
  4.672628E-01
  4.678520E-01
  4.664522E-01
  4.671061E-01
  4.659690E-01
  4.670201E-01
  4.663193E-01
  4.677413E-01
  4.672559E-01
  4.686810E-01
  4.679775E-01
  4.690068E-01
  4.678195E-01
  4.683963E-01
  4.669078E-01
  4.674217E-01
  4.661339E-01
  4.670609E-01
  4.662795E-01
  4.676499E-01
  4.671008E-01
  4.684003E-01
  4.674751E-01
  4.681888E-01
  4.666371E-01
  4.668765E-01
  4.651595E-01
  4.656112E-01
  4.644403E-01
  4.656275E-01
  4.651824E-01
  4.668972E-01
  4.666634E-01
  4.682622E-01
  4.676795E-01
  4.688575E-01
  4.679491E-01
  4.690079E-01
  4.682048E-01
  4.695155E-01
  4.689702E-01
  4.703975E-01
  4.697286E-01
  4.688574E-01
  4.677120E-01
  4.687037E-01
  4.673480E-01
  4.681124E-01
  4.665585E-01
  4.671838E-01
  4.655631E-01
  4.661995E-01
  4.646750E-01
  4.655015E-01
  4.642628E-01
  4.654526E-01
  4.646097E-01
  4.661611E-01
  4.655733E-01
  4.672163E-01
  4.665324E-01
  4.679081E-01
  4.668383E-01
  4.677865E-01
  4.663317E-01
  4.670098E-01
  4.654448E-01
  4.661819E-01
  4.648202E-01
  4.658574E-01
  4.648395E-01
  4.662177E-01
  4.655021E-01
  4.671119E-01
  4.665208E-01
  4.681081E-01
  4.673190E-01
  4.685406E-01
  4.672813E-01
  4.680437E-01
  4.664710E-01
  4.671675E-01
  4.657966E-01
  4.668832E-01
  4.659359E-01
  4.673098E-01
  4.663986E-01
  4.675444E-01
  4.662332E-01
  4.669651E-01
  4.653855E-01
  4.660958E-01
  4.647548E-01
  4.658949E-01
  4.650576E-01
  4.666527E-01
  4.661279E-01
  4.678450E-01
  4.672512E-01
  4.687471E-01
  4.678451E-01
  4.690235E-01
  4.678671E-01
  4.689019E-01
  4.677212E-01
  4.688175E-01
  4.677211E-01
  4.713274E-01
  4.697288E-01
  4.701009E-01
  4.680815E-01
  4.682236E-01
  4.661937E-01
  4.665191E-01
  4.648040E-01
  4.655025E-01
  4.641580E-01
  4.651892E-01
  4.641296E-01
  4.654033E-01
  4.645520E-01
  4.660009E-01
  4.652813E-01
  4.668003E-01
  4.660727E-01
  4.674995E-01
  4.666076E-01
  4.678302E-01
  4.667405E-01
  4.678202E-01
  4.666795E-01
  4.678147E-01
  4.668232E-01
  4.681621E-01
  4.673718E-01
  4.688468E-01
  4.680722E-01
  4.694084E-01
  4.683399E-01
  4.692677E-01
  4.677563E-01
  4.683132E-01
  4.666098E-01
  4.672275E-01
  4.658499E-01
  4.669948E-01
  4.662149E-01
  4.678626E-01
  4.673394E-01
  4.689094E-01
  4.679809E-01
  4.689235E-01
  4.673219E-01
  4.677409E-01
  4.659195E-01
  4.664894E-01
  4.651499E-01
  4.664017E-01
  4.657655E-01
  4.675722E-01
  4.672319E-01
  4.690520E-01
  4.685045E-01
  4.700140E-01
  4.691785E-01
  4.705124E-01
  4.696367E-01
  4.710183E-01
  4.701839E-01
  4.714993E-01
  4.704259E-01
  4.687726E-01
  4.677490E-01
  4.683542E-01
  4.673678E-01
  4.679736E-01
  4.669552E-01
  4.674991E-01
  4.663941E-01
  4.668435E-01
  4.656703E-01
  4.661227E-01
  4.650605E-01
  4.657396E-01
  4.649876E-01
  4.659939E-01
  4.655074E-01
  4.666546E-01
  4.661575E-01
  4.671591E-01
  4.664327E-01
  4.671892E-01
  4.662655E-01
  4.669147E-01
  4.659858E-01
  4.667141E-01
  4.659114E-01
  4.667728E-01
  4.660832E-01
  4.670321E-01
  4.664137E-01
  4.674250E-01
  4.668498E-01
  4.678516E-01
  4.671729E-01
  4.679580E-01
  4.669790E-01
  4.674634E-01
  4.662952E-01
  4.667943E-01
  4.658687E-01
  4.667728E-01
  4.662782E-01
  4.674851E-01
  4.670566E-01
  4.680740E-01
  4.672752E-01
  4.678758E-01
  4.667529E-01
  4.672178E-01