# vtk DataFile Version 2.0
title
ASCII
DATASET STRUCTURED_GRID
DIMENSIONS   64   64    1
POINTS   4096  float
  0.000000E+00  0.000000E+00  0.000000E+00
  0.000000E+00  3.906250E-01  0.000000E+00
  0.000000E+00  7.812500E-01  0.000000E+00
  0.000000E+00  1.171875E+00  0.000000E+00
  0.000000E+00  1.562500E+00  0.000000E+00
  0.000000E+00  1.953125E+00  0.000000E+00
  0.000000E+00  2.343750E+00  0.000000E+00
  0.000000E+00  2.734375E+00  0.000000E+00
  0.000000E+00  3.125000E+00  0.000000E+00
  0.000000E+00  3.515625E+00  0.000000E+00
  0.000000E+00  3.906250E+00  0.000000E+00
  0.000000E+00  4.296875E+00  0.000000E+00
  0.000000E+00  4.687500E+00  0.000000E+00
  0.000000E+00  5.078125E+00  0.000000E+00
  0.000000E+00  5.468750E+00  0.000000E+00
  0.000000E+00  5.859375E+00  0.000000E+00
  0.000000E+00  6.250000E+00  0.000000E+00
  0.000000E+00  6.640625E+00  0.000000E+00
  0.000000E+00  7.031250E+00  0.000000E+00
  0.000000E+00  7.421875E+00  0.000000E+00
  0.000000E+00  7.812500E+00  0.000000E+00
  0.000000E+00  8.203125E+00  0.000000E+00
  0.000000E+00  8.593750E+00  0.000000E+00
  0.000000E+00  8.984375E+00  0.000000E+00
  0.000000E+00  9.375000E+00  0.000000E+00
  0.000000E+00  9.765625E+00  0.000000E+00
  0.000000E+00  1.015625E+01  0.000000E+00
  0.000000E+00  1.054688E+01  0.000000E+00
  0.000000E+00  1.093750E+01  0.000000E+00
  0.000000E+00  1.132812E+01  0.000000E+00
  0.000000E+00  1.171875E+01  0.000000E+00
  0.000000E+00  1.210938E+01  0.000000E+00
  0.000000E+00  1.250000E+01  0.000000E+00
  0.000000E+00  1.289062E+01  0.000000E+00
  0.000000E+00  1.328125E+01  0.000000E+00
  0.000000E+00  1.367188E+01  0.000000E+00
  0.000000E+00  1.406250E+01  0.000000E+00
  0.000000E+00  1.445312E+01  0.000000E+00
  0.000000E+00  1.484375E+01  0.000000E+00
  0.000000E+00  1.523438E+01  0.000000E+00
  0.000000E+00  1.562500E+01  0.000000E+00
  0.000000E+00  1.601562E+01  0.000000E+00
  0.000000E+00  1.640625E+01  0.000000E+00
  0.000000E+00  1.679688E+01  0.000000E+00
  0.000000E+00  1.718750E+01  0.000000E+00
  0.000000E+00  1.757812E+01  0.000000E+00
  0.000000E+00  1.796875E+01  0.000000E+00
  0.000000E+00  1.835938E+01  0.000000E+00
  0.000000E+00  1.875000E+01  0.000000E+00
  0.000000E+00  1.914062E+01  0.000000E+00
  0.000000E+00  1.953125E+01  0.000000E+00
  0.000000E+00  1.992188E+01  0.000000E+00
  0.000000E+00  2.031250E+01  0.000000E+00
  0.000000E+00  2.070312E+01  0.000000E+00
  0.000000E+00  2.109375E+01  0.000000E+00
  0.000000E+00  2.148438E+01  0.000000E+00
  0.000000E+00  2.187500E+01  0.000000E+00
  0.000000E+00  2.226562E+01  0.000000E+00
  0.000000E+00  2.265625E+01  0.000000E+00
  0.000000E+00  2.304688E+01  0.000000E+00
  0.000000E+00  2.343750E+01  0.000000E+00
  0.000000E+00  2.382812E+01  0.000000E+00
  0.000000E+00  2.421875E+01  0.000000E+00
  0.000000E+00  2.460938E+01  0.000000E+00
  3.906250E-01  0.000000E+00  0.000000E+00
  3.906250E-01  3.906250E-01  0.000000E+00
  3.906250E-01  7.812500E-01  0.000000E+00
  3.906250E-01  1.171875E+00  0.000000E+00
  3.906250E-01  1.562500E+00  0.000000E+00
  3.906250E-01  1.953125E+00  0.000000E+00
  3.906250E-01  2.343750E+00  0.000000E+00
  3.906250E-01  2.734375E+00  0.000000E+00
  3.906250E-01  3.125000E+00  0.000000E+00
  3.906250E-01  3.515625E+00  0.000000E+00
  3.906250E-01  3.906250E+00  0.000000E+00
  3.906250E-01  4.296875E+00  0.000000E+00
  3.906250E-01  4.687500E+00  0.000000E+00
  3.906250E-01  5.078125E+00  0.000000E+00
  3.906250E-01  5.468750E+00  0.000000E+00
  3.906250E-01  5.859375E+00  0.000000E+00
  3.906250E-01  6.250000E+00  0.000000E+00
  3.906250E-01  6.640625E+00  0.000000E+00
  3.906250E-01  7.031250E+00  0.000000E+00
  3.906250E-01  7.421875E+00  0.000000E+00
  3.906250E-01  7.812500E+00  0.000000E+00
  3.906250E-01  8.203125E+00  0.000000E+00
  3.906250E-01  8.593750E+00  0.000000E+00
  3.906250E-01  8.984375E+00  0.000000E+00
  3.906250E-01  9.375000E+00  0.000000E+00
  3.906250E-01  9.765625E+00  0.000000E+00
  3.906250E-01  1.015625E+01  0.000000E+00
  3.906250E-01  1.054688E+01  0.000000E+00
  3.906250E-01  1.093750E+01  0.000000E+00
  3.906250E-01  1.132812E+01  0.000000E+00
  3.906250E-01  1.171875E+01  0.000000E+00
  3.906250E-01  1.210938E+01  0.000000E+00
  3.906250E-01  1.250000E+01  0.000000E+00
  3.906250E-01  1.289062E+01  0.000000E+00
  3.906250E-01  1.328125E+01  0.000000E+00
  3.906250E-01  1.367188E+01  0.000000E+00
  3.906250E-01  1.406250E+01  0.000000E+00
  3.906250E-01  1.445312E+01  0.000000E+00
  3.906250E-01  1.484375E+01  0.000000E+00
  3.906250E-01  1.523438E+01  0.000000E+00
  3.906250E-01  1.562500E+01  0.000000E+00
  3.906250E-01  1.601562E+01  0.000000E+00
  3.906250E-01  1.640625E+01  0.000000E+00
  3.906250E-01  1.679688E+01  0.000000E+00
  3.906250E-01  1.718750E+01  0.000000E+00
  3.906250E-01  1.757812E+01  0.000000E+00
  3.906250E-01  1.796875E+01  0.000000E+00
  3.906250E-01  1.835938E+01  0.000000E+00
  3.906250E-01  1.875000E+01  0.000000E+00
  3.906250E-01  1.914062E+01  0.000000E+00
  3.906250E-01  1.953125E+01  0.000000E+00
  3.906250E-01  1.992188E+01  0.000000E+00
  3.906250E-01  2.031250E+01  0.000000E+00
  3.906250E-01  2.070312E+01  0.000000E+00
  3.906250E-01  2.109375E+01  0.000000E+00
  3.906250E-01  2.148438E+01  0.000000E+00
  3.906250E-01  2.187500E+01  0.000000E+00
  3.906250E-01  2.226562E+01  0.000000E+00
  3.906250E-01  2.265625E+01  0.000000E+00
  3.906250E-01  2.304688E+01  0.000000E+00
  3.906250E-01  2.343750E+01  0.000000E+00
  3.906250E-01  2.382812E+01  0.000000E+00
  3.906250E-01  2.421875E+01  0.000000E+00
  3.906250E-01  2.460938E+01  0.000000E+00
  7.812500E-01  0.000000E+00  0.000000E+00
  7.812500E-01  3.906250E-01  0.000000E+00
  7.812500E-01  7.812500E-01  0.000000E+00
  7.812500E-01  1.171875E+00  0.000000E+00
  7.812500E-01  1.562500E+00  0.000000E+00
  7.812500E-01  1.953125E+00  0.000000E+00
  7.812500E-01  2.343750E+00  0.000000E+00
  7.812500E-01  2.734375E+00  0.000000E+00
  7.812500E-01  3.125000E+00  0.000000E+00
  7.812500E-01  3.515625E+00  0.000000E+00
  7.812500E-01  3.906250E+00  0.000000E+00
  7.812500E-01  4.296875E+00  0.000000E+00
  7.812500E-01  4.687500E+00  0.000000E+00
  7.812500E-01  5.078125E+00  0.000000E+00
  7.812500E-01  5.468750E+00  0.000000E+00
  7.812500E-01  5.859375E+00  0.000000E+00
  7.812500E-01  6.250000E+00  0.000000E+00
  7.812500E-01  6.640625E+00  0.000000E+00
  7.812500E-01  7.031250E+00  0.000000E+00
  7.812500E-01  7.421875E+00  0.000000E+00
  7.812500E-01  7.812500E+00  0.000000E+00
  7.812500E-01  8.203125E+00  0.000000E+00
  7.812500E-01  8.593750E+00  0.000000E+00
  7.812500E-01  8.984375E+00  0.000000E+00
  7.812500E-01  9.375000E+00  0.000000E+00
  7.812500E-01  9.765625E+00  0.000000E+00
  7.812500E-01  1.015625E+01  0.000000E+00
  7.812500E-01  1.054688E+01  0.000000E+00
  7.812500E-01  1.093750E+01  0.000000E+00
  7.812500E-01  1.132812E+01  0.000000E+00
  7.812500E-01  1.171875E+01  0.000000E+00
  7.812500E-01  1.210938E+01  0.000000E+00
  7.812500E-01  1.250000E+01  0.000000E+00
  7.812500E-01  1.289062E+01  0.000000E+00
  7.812500E-01  1.328125E+01  0.000000E+00
  7.812500E-01  1.367188E+01  0.000000E+00
  7.812500E-01  1.406250E+01  0.000000E+00
  7.812500E-01  1.445312E+01  0.000000E+00
  7.812500E-01  1.484375E+01  0.000000E+00
  7.812500E-01  1.523438E+01  0.000000E+00
  7.812500E-01  1.562500E+01  0.000000E+00
  7.812500E-01  1.601562E+01  0.000000E+00
  7.812500E-01  1.640625E+01  0.000000E+00
  7.812500E-01  1.679688E+01  0.000000E+00
  7.812500E-01  1.718750E+01  0.000000E+00
  7.812500E-01  1.757812E+01  0.000000E+00
  7.812500E-01  1.796875E+01  0.000000E+00
  7.812500E-01  1.835938E+01  0.000000E+00
  7.812500E-01  1.875000E+01  0.000000E+00
  7.812500E-01  1.914062E+01  0.000000E+00
  7.812500E-01  1.953125E+01  0.000000E+00
  7.812500E-01  1.992188E+01  0.000000E+00
  7.812500E-01  2.031250E+01  0.000000E+00
  7.812500E-01  2.070312E+01  0.000000E+00
  7.812500E-01  2.109375E+01  0.000000E+00
  7.812500E-01  2.148438E+01  0.000000E+00
  7.812500E-01  2.187500E+01  0.000000E+00
  7.812500E-01  2.226562E+01  0.000000E+00
  7.812500E-01  2.265625E+01  0.000000E+00
  7.812500E-01  2.304688E+01  0.000000E+00
  7.812500E-01  2.343750E+01  0.000000E+00
  7.812500E-01  2.382812E+01  0.000000E+00
  7.812500E-01  2.421875E+01  0.000000E+00
  7.812500E-01  2.460938E+01  0.000000E+00
  1.171875E+00  0.000000E+00  0.000000E+00
  1.171875E+00  3.906250E-01  0.000000E+00
  1.171875E+00  7.812500E-01  0.000000E+00
  1.171875E+00  1.171875E+00  0.000000E+00
  1.171875E+00  1.562500E+00  0.000000E+00
  1.171875E+00  1.953125E+00  0.000000E+00
  1.171875E+00  2.343750E+00  0.000000E+00
  1.171875E+00  2.734375E+00  0.000000E+00
  1.171875E+00  3.125000E+00  0.000000E+00
  1.171875E+00  3.515625E+00  0.000000E+00
  1.171875E+00  3.906250E+00  0.000000E+00
  1.171875E+00  4.296875E+00  0.000000E+00
  1.171875E+00  4.687500E+00  0.000000E+00
  1.171875E+00  5.078125E+00  0.000000E+00
  1.171875E+00  5.468750E+00  0.000000E+00
  1.171875E+00  5.859375E+00  0.000000E+00
  1.171875E+00  6.250000E+00  0.000000E+00
  1.171875E+00  6.640625E+00  0.000000E+00
  1.171875E+00  7.031250E+00  0.000000E+00
  1.171875E+00  7.421875E+00  0.000000E+00
  1.171875E+00  7.812500E+00  0.000000E+00
  1.171875E+00  8.203125E+00  0.000000E+00
  1.171875E+00  8.593750E+00  0.000000E+00
  1.171875E+00  8.984375E+00  0.000000E+00
  1.171875E+00  9.375000E+00  0.000000E+00
  1.171875E+00  9.765625E+00  0.000000E+00
  1.171875E+00  1.015625E+01  0.000000E+00
  1.171875E+00  1.054688E+01  0.000000E+00
  1.171875E+00  1.093750E+01  0.000000E+00
  1.171875E+00  1.132812E+01  0.000000E+00
  1.171875E+00  1.171875E+01  0.000000E+00
  1.171875E+00  1.210938E+01  0.000000E+00
  1.171875E+00  1.250000E+01  0.000000E+00
  1.171875E+00  1.289062E+01  0.000000E+00
  1.171875E+00  1.328125E+01  0.000000E+00
  1.171875E+00  1.367188E+01  0.000000E+00
  1.171875E+00  1.406250E+01  0.000000E+00
  1.171875E+00  1.445312E+01  0.000000E+00
[...]
POINT_DATA   4096
SCALARS CON  float  1
LOOKUP_TABLE default
  4.695026E-01
  4.685421E-01
  4.710860E-01
  4.696205E-01
  4.713641E-01
  4.691546E-01
  4.704672E-01
  4.682045E-01
  4.697300E-01
  4.677601E-01
  4.695177E-01
  4.676927E-01
  4.695792E-01
  4.679579E-01
  4.701479E-01
  4.688516E-01
  4.712356E-01
  4.698531E-01
  4.718036E-01
  4.696964E-01
  4.707981E-01
  4.679387E-01
  4.685847E-01
  4.656803E-01
  4.666850E-01
  4.644200E-01
  4.661505E-01
  4.645023E-01
  4.666159E-01
  4.651043E-01
  4.671980E-01
  4.656435E-01
  4.677691E-01
  4.663263E-01
  4.685536E-01
  4.670717E-01
  4.690263E-01
  4.670439E-01
  4.683844E-01
  4.658560E-01
  4.668996E-01
  4.644425E-01
  4.659479E-01
  4.642641E-01
  4.666888E-01
  4.658490E-01
  4.688140E-01
  4.680412E-01
  4.705601E-01
  4.689624E-01
  4.705680E-01
  4.683171E-01
  4.697904E-01
  4.679705E-01
  4.702190E-01
  4.691213E-01
  4.716432E-01
  4.701694E-01
  4.717696E-01
  4.692013E-01
  4.700073E-01
  4.672977E-01
  4.686830E-01
  4.670278E-01
  4.713570E-01
  4.707986E-01
  4.721509E-01
  4.707525E-01
  4.711305E-01
  4.690007E-01
  4.691523E-01
  4.673437E-01
  4.681876E-01
  4.671489E-01
  4.685759E-01
  4.678146E-01
  4.692689E-01
  4.684477E-01
  4.699082E-01
  4.692054E-01
  4.708100E-01
  4.701143E-01
  4.714512E-01
  4.701867E-01
  4.707671E-01
  4.687694E-01
  4.688632E-01
  4.667764E-01
  4.672056E-01
  4.657795E-01
  4.670082E-01
  4.663063E-01
  4.680031E-01
  4.674141E-01
  4.688775E-01
  4.678197E-01
  4.687526E-01
  4.672771E-01
  4.680154E-01
  4.665749E-01
  4.674860E-01
  4.662166E-01
  4.671830E-01
  4.658253E-01
  4.666362E-01
  4.651999E-01
  4.661490E-01
  4.651271E-01
  4.667009E-01
  4.663354E-01
  4.683726E-01
  4.681044E-01
  4.698376E-01
  4.689989E-01
  4.701541E-01
  4.689999E-01
  4.702525E-01
  4.695546E-01
  4.713759E-01
  4.710311E-01
  4.727409E-01
  4.717810E-01
  4.725742E-01
  4.707541E-01
  4.710955E-01
  4.694160E-01
  4.704204E-01
  4.696305E-01
  4.680048E-01
  4.688063E-01
  4.699890E-01
  4.702055E-01
  4.703847E-01
  4.696227E-01
  4.692095E-01
  4.683789E-01
  4.683172E-01
  4.680120E-01
  4.684099E-01
  4.683800E-01
  4.688978E-01
  4.689455E-01
  4.695929E-01
  4.698211E-01
  4.705942E-01
  4.707409E-01
  4.711150E-01
  4.705478E-01
  4.700269E-01
  4.686076E-01
  4.675124E-01
  4.659590E-01
  4.652033E-01
  4.643582E-01
  4.644778E-01
  4.644511E-01
  4.651642E-01
  4.654451E-01
  4.662271E-01
  4.664454E-01
  4.671305E-01
  4.672504E-01
  4.677934E-01
  4.676486E-01
  4.677531E-01
  4.670247E-01
  4.665204E-01
  4.653340E-01
  4.646919E-01
  4.637874E-01
  4.638375E-01
  4.639119E-01
  4.650146E-01
  4.659620E-01
  4.675304E-01
  4.684053E-01
  4.693885E-01
  4.693651E-01
  4.694628E-01
  4.689065E-01
  4.690341E-01
  4.690415E-01
  4.699839E-01
  4.706263E-01
  4.716343E-01
  4.716147E-01
  4.714029E-01
  4.700499E-01
  4.689244E-01
  4.674639E-01
  4.670999E-01
  4.669768E-01
  4.694487E-01
  4.706599E-01
  4.705145E-01
  4.708268E-01
  4.695768E-01
  4.690088E-01
  4.674338E-01
  4.671927E-01
  4.664311E-01
  4.671549E-01
  4.671694E-01
  4.682870E-01
  4.683306E-01
  4.692907E-01
  4.691993E-01
  4.701574E-01
  4.701498E-01
  4.711111E-01
  4.708500E-01
  4.712290E-01
  4.701434E-01
  4.696736E-01
  4.679734E-01
  4.673181E-01
  4.659229E-01
  4.659773E-01
  4.655015E-01
  4.664469E-01
  4.666203E-01
  4.678393E-01
  4.678867E-01
  4.686670E-01
  4.681299E-01
  4.683674E-01
  4.674703E-01
  4.675762E-01
  4.667201E-01
  4.669246E-01
  4.661214E-01
  4.663030E-01
  4.654623E-01
  4.657091E-01
  4.651375E-01
  4.658728E-01
  4.659095E-01
  4.671869E-01
  4.675045E-01
  4.686895E-01
  4.685761E-01
  4.691741E-01
  4.685807E-01
  4.690338E-01
  4.687119E-01
  4.697347E-01
  4.700002E-01
  4.713066E-01
  4.713402E-01
  4.719058E-01
  4.709280E-01
  4.705883E-01
  4.691671E-01
  4.690265E-01
  4.683698E-01
  4.692495E-01
  4.659673E-01
  4.682641E-01
  4.680619E-01
  4.697927E-01
  4.685805E-01
  4.693003E-01
  4.674611E-01
  4.681091E-01
  4.666702E-01
  4.679365E-01
  4.670595E-01
  4.686699E-01
  4.679215E-01
  4.695625E-01
  4.688720E-01
  4.706343E-01
  4.700424E-01
  4.717187E-01
  4.707155E-01
  4.716272E-01
  4.696296E-01
  4.695598E-01
  4.668671E-01
  4.665896E-01
  4.642318E-01
  4.647267E-01
  4.633585E-01
  4.648104E-01
  4.641753E-01
  4.660562E-01
  4.655770E-01
  4.674353E-01
  4.668455E-01
  4.685404E-01
  4.677065E-01
  4.690220E-01
  4.676501E-01
  4.683218E-01
  4.663349E-01
  4.665972E-01
  4.645591E-01
  4.651946E-01
  4.639010E-01
  4.654871E-01
  4.651159E-01
  4.673576E-01
  4.671995E-01
  4.691559E-01
  4.683068E-01
  4.693949E-01
  4.678028E-01
  4.685473E-01
  4.671451E-01
  4.685336E-01
  4.679443E-01
  4.699245E-01
  4.693736E-01
  4.707212E-01
  4.690386E-01
  4.691668E-01
  4.666644E-01
  4.667278E-01
  4.649788E-01
  4.663474E-01
  4.675761E-01
  4.697766E-01
  4.685963E-01
  4.700415E-01
  4.679045E-01
  4.685640E-01
  4.661200E-01
  4.670627E-01
  4.653635E-01
  4.672126E-01
  4.662578E-01
  4.684933E-01
  4.675729E-01
  4.696605E-01
  4.686196E-01
  4.707265E-01
  4.697914E-01
  4.719075E-01
  4.706878E-01
  4.721424E-01
  4.699817E-01
  4.704661E-01
  4.676048E-01
  4.678822E-01
  4.653737E-01
  4.664579E-01
  4.649824E-01
  4.670588E-01
  4.663074E-01
  4.687059E-01
  4.678569E-01
  4.698292E-01
  4.683900E-01
  4.697901E-01
  4.679363E-01
  4.691329E-01
  4.672486E-01
  4.684955E-01
  4.666572E-01
  4.679200E-01
  4.661125E-01
  4.675023E-01
  4.659731E-01
  4.677693E-01
  4.666641E-01
  4.687450E-01
  4.676548E-01
  4.694466E-01
  4.678555E-01
  4.691277E-01
  4.672175E-01
  4.685220E-01
  4.670040E-01
  4.689107E-01
  4.679495E-01
  4.701114E-01
  4.689594E-01
  4.705202E-01
  4.685668E-01
  4.694292E-01
  4.671554E-01
  4.682107E-01
  4.665801E-01
  4.684852E-01
  4.644665E-01
  4.671418E-01
  4.663988E-01
  4.687943E-01
  4.673417E-01
  4.689332E-01
  4.669038E-01
  4.683178E-01
  4.664826E-01
  4.682871E-01
  4.668331E-01
  4.688859E-01
  4.675529E-01
  4.696966E-01
  4.685190E-01
  4.708856E-01
  4.698825E-01
  4.721901E-01
  4.707429E-01
  4.722019E-01
  4.696545E-01
  4.700463E-01
  4.667756E-01
  4.670049E-01
  4.641731E-01
  4.652978E-01
  4.635532E-01
  4.656779E-01
  4.646525E-01
  4.671572E-01
  4.662341E-01
  4.686803E-01
  4.676318E-01
  4.699083E-01
  4.686006E-01
  4.704651E-01
  4.685761E-01
  4.697625E-01
  4.672544E-01
  4.680666E-01
  4.655688E-01
  4.668069E-01
  4.650526E-01
  4.671525E-01
  4.661409E-01
  4.686610E-01
  4.676376E-01
  4.697285E-01
  4.679938E-01
  4.693134E-01
  4.669948E-01
  4.681140E-01
  4.660508E-01
  4.677898E-01
  4.664703E-01
  4.687650E-01
  4.675493E-01
  4.693951E-01
  4.673005E-01
  4.681523E-01
  4.653394E-01
  4.660567E-01
  4.637856E-01
  4.655511E-01
  4.665194E-01
  4.685418E-01
  4.673157E-01
  4.689890E-01
  4.672217E-01
  4.683921E-01
  4.663774E-01
  4.676604E-01
  4.660613E-01
  4.678770E-01
  4.667144E-01
  4.687440E-01
  4.675944E-01
  4.695750E-01
  4.684672E-01
  4.706331E-01
  4.697534E-01
  4.719812E-01
  4.707997E-01
  4.723024E-01
  4.701103E-01
  4.706108E-01
  4.677530E-01
  4.681492E-01
  4.657827E-01
  4.671077E-01
  4.658305E-01
  4.681137E-01
  4.674483E-01
  4.699052E-01
  4.690090E-01
  4.709582E-01
  4.694494E-01
  4.708436E-01
  4.689451E-01
  4.701444E-01
  4.682044E-01
  4.694391E-01
  4.675495E-01
  4.688372E-01
  4.670395E-01
  4.685083E-01
  4.669962E-01
  4.688044E-01
  4.675769E-01
  4.694946E-01
  4.681309E-01
  4.696884E-01
  4.678584E-01
  4.690168E-01
  4.670148E-01
  4.683078E-01
  4.667083E-01
  4.685249E-01
  4.673699E-01
  4.693763E-01
  4.680752E-01
  4.696440E-01
  4.677663E-01
  4.688227E-01
  4.666764E-01
  4.678022E-01
  4.660404E-01
  4.677328E-01
  4.638154E-01
  4.659404E-01
  4.655119E-01
  4.678205E-01
  4.671464E-01
  4.689599E-01
  4.677610E-01
  4.691815E-01
  4.677730E-01
  4.691254E-01
  4.677184E-01
  4.691062E-01
  4.677955E-01
  4.693993E-01
  4.684461E-01
  4.704764E-01
  4.698477E-01
  4.718926E-01
  4.708257E-01
  4.719919E-01
  4.698012E-01
  4.699202E-01
  4.670866E-01
  4.671712E-01
  4.649117E-01
  4.659796E-01
  4.648025E-01
  4.667588E-01
  4.661077E-01
  4.682248E-01
  4.674938E-01
  4.694500E-01
  4.685784E-01
  4.704109E-01
  4.693453E-01
  4.708158E-01
  4.691927E-01
  4.699953E-01
  4.677727E-01
  4.682448E-01
  4.660948E-01
  4.670479E-01
  4.656569E-01
  4.674282E-01
  4.666845E-01
  4.687650E-01
  4.679327E-01
  4.695824E-01
  4.681229E-01
  4.691412E-01
  4.672345E-01
  4.681235E-01
  4.664427E-01
  4.678332E-01
  4.667456E-01
  4.685849E-01
  4.675946E-01
  4.690860E-01
  4.673734E-01
  4.679937E-01
  4.655684E-01
  4.659090E-01
  4.637705E-01
  4.649007E-01
  4.661976E-01
  4.675340E-01
  4.667753E-01
  4.681944E-01
  4.673261E-01
  4.685273E-01
  4.674500E-01
  4.685417E-01
  4.674730E-01
  4.686377E-01
  4.676291E-01
  4.688051E-01
  4.678009E-01
  4.690705E-01
  4.683234E-01
  4.699878E-01
  4.696208E-01
  4.714260E-01
  4.707793E-01
  4.718587E-01
  4.702139E-01
  4.703412E-01
  4.681217E-01
  4.682557E-01
  4.666193E-01
  4.677103E-01
  4.670963E-01
  4.689818E-01
  4.687520E-01
  4.705774E-01
  4.699376E-01
  4.711692E-01
  4.699262E-01
  4.706775E-01
  4.691406E-01
  4.697778E-01
  4.682522E-01
  4.689605E-01
  4.675241E-01
  4.683393E-01
  4.670576E-01
  4.681026E-01
  4.671158E-01
  4.684598E-01
  4.676819E-01
  4.690613E-01
  4.681183E-01
  4.691839E-01
  4.678948E-01
  4.687193E-01
  4.673963E-01
  4.684170E-01
  4.674525E-01
  4.688605E-01
  4.681636E-01
  4.696127E-01
  4.687030E-01
  4.697429E-01
  4.683440E-01
  4.689470E-01
  4.672729E-01
  4.678246E-01
  4.663292E-01
  4.672419E-01
  4.637831E-01
  4.652832E-01
  4.652824E-01
  4.672750E-01
  4.673534E-01
  4.690726E-01
  4.686558E-01
  4.697998E-01
  4.688386E-01
  4.695387E-01
  4.682804E-01
  4.688733E-01
  4.677391E-01
  4.687014E-01
  4.681286E-01
  4.697021E-01
  4.695791E-01
  4.712291E-01
  4.706892E-01
  4.714727E-01
  4.698358E-01
  4.696213E-01
  4.674048E-01
  4.672115E-01
  4.655889E-01
  4.663392E-01
  4.656891E-01
  4.671576E-01
  4.668357E-01
  4.682858E-01
  4.677661E-01
  4.690213E-01
  4.684049E-01
  4.696283E-01
  4.689204E-01
  4.698680E-01
  4.686660E-01
  4.689981E-01
  4.672537E-01
  4.673216E-01
  4.657121E-01
  4.662949E-01
  4.654291E-01
  4.667637E-01
  4.664516E-01
  4.680168E-01
  4.675968E-01
  4.687961E-01
  4.678907E-01
  4.686378E-01
  4.674417E-01
  4.681367E-01
  4.671338E-01
  4.681957E-01
  4.675949E-01
  4.689225E-01
  4.683018E-01
  4.692564E-01
  4.679633E-01
  4.681200E-01
  4.661477E-01
  4.659768E-01
  4.641659E-01
  4.646343E-01
  4.664850E-01
  4.673483E-01
  4.668710E-01
  4.679344E-01
  4.675161E-01
  4.684992E-01
  4.679049E-01
  4.686781E-01
  4.678895E-01
  4.685076E-01
  4.676124E-01
  4.681937E-01
  4.673783E-01
  4.682086E-01
  4.678217E-01
  4.691803E-01
  4.692467E-01
  4.707701E-01
  4.705600E-01
  4.713655E-01
  4.701787E-01
  4.700577E-01
  4.683075E-01
  4.681727E-01
  4.669443E-01
  4.676673E-01
  4.673376E-01
  4.687273E-01
  4.686736E-01
  4.699370E-01
  4.694617E-01
  4.701722E-01
  4.691700E-01
  4.694866E-01
  4.682654E-01
  4.685241E-01
  4.673605E-01
  4.677431E-01
  4.667384E-01
  4.673069E-01
  4.665199E-01
  4.673336E-01
  4.667890E-01
  4.677863E-01
  4.673069E-01
  4.682207E-01
  4.675327E-01
  4.681922E-01
  4.673127E-01
  4.679370E-01
  4.672149E-01
  4.681481E-01
  4.677797E-01
  4.689783E-01
  4.686794E-01
  4.697118E-01
  4.690521E-01
  4.696300E-01
  4.685401E-01
  4.688049E-01
  4.675630E-01
  4.678367E-01
  4.667401E-01
  4.672635E-01
  4.644679E-01
  4.656130E-01
  4.657520E-01
  4.672909E-01
  4.675082E-01
  4.688282E-01
  4.686013E-01
  4.693522E-01
  4.685401E-01
  4.687956E-01
  4.676726E-01
  4.678762E-01
  4.669965E-01
  4.677135E-01
  4.675152E-01
  4.689064E-01
  4.691632E-01
  4.706053E-01
  4.704226E-01
  4.709972E-01
  4.697310E-01
  4.693091E-01
  4.674241E-01
  4.669314E-01
  4.655079E-01
  4.658173E-01
  4.652528E-01
  4.662242E-01
  4.660004E-01
  4.670266E-01
  4.667157E-01
  4.676644E-01
  4.673516E-01
  4.683226E-01
  4.679325E-01
  4.686212E-01
  4.677393E-01
  4.678484E-01
  4.664987E-01
  4.664356E-01
  4.652891E-01
  4.657419E-01
  4.652487E-01
  4.662820E-01
  4.661353E-01
  4.672221E-01
  4.668831E-01
  4.676477E-01
  4.669886E-01
  4.675390E-01
  4.668249E-01
  4.674803E-01
  4.669871E-01
  4.679015E-01
  4.676079E-01
  4.685661E-01
  4.680942E-01
  4.686452E-01
  4.676068E-01
  4.675693E-01
  4.660886E-01
  4.659001E-01
  4.646301E-01
  4.649842E-01
  4.676293E-01
  4.681319E-01
  4.677416E-01
  4.681571E-01
  4.676819E-01
  4.680082E-01
  4.674366E-01
  4.676677E-01
  4.670188E-01
  4.672096E-01
  4.665788E-01
  4.668742E-01
  4.664673E-01
  4.671264E-01
  4.672013E-01
  4.683711E-01
  4.688327E-01
  4.700945E-01
  4.702399E-01
  4.707887E-01
  4.699838E-01
  4.696088E-01
  4.681792E-01
  4.676553E-01
  4.665676E-01
  4.667332E-01
  4.664467E-01
  4.672897E-01
  4.673995E-01
  4.683111E-01
  4.682122E-01
  4.687438E-01
  4.682102E-01
  4.683498E-01
  4.675320E-01
  4.675280E-01
  4.667128E-01
  4.668426E-01
  4.662621E-01
  4.666850E-01
  4.664028E-01
  4.670682E-01
  4.669122E-01
  4.675441E-01
  4.671901E-01
  4.675078E-01
  4.668224E-01
  4.669152E-01
  4.662153E-01
  4.665435E-01
  4.662796E-01
  4.671147E-01
  4.672610E-01
  4.682658E-01
  4.682786E-01
  4.688915E-01
  4.683908E-01
  4.685426E-01
  4.677737E-01
  4.679046E-01
  4.673178E-01
  4.677233E-01
  4.673847E-01
  4.679364E-01
  4.660506E-01
  4.666844E-01
  4.669713E-01
  4.675960E-01
  4.677317E-01
  4.680966E-01
  4.678994E-01
  4.678982E-01
  4.673543E-01
  4.670961E-01
  4.664626E-01
  4.663434E-01
  4.660943E-01
  4.665554E-01
  4.669660E-01
  4.680042E-01
  4.687406E-01
  4.697260E-01
  4.699886E-01
  4.701468E-01
  4.694015E-01
  4.686097E-01
  4.672081E-01
  4.662091E-01
  4.650707E-01
  4.646870E-01
  4.643100E-01
  4.646276E-01
  4.647652E-01
  4.653956E-01
  4.657092E-01
  4.664526E-01
  4.668336E-01
  4.675440E-01
  4.677084E-01
  4.679810E-01
  4.675501E-01
  4.672329E-01
  4.664152E-01
  4.660525E-01
  4.655385E-01
  4.656982E-01
  4.657142E-01
  4.662141E-01
  4.662802E-01
  4.665696E-01
  4.662967E-01
  4.662852E-01
  4.658785E-01
  4.659463E-01
  4.657925E-01
  4.661913E-01
  4.663370E-01
  4.669151E-01
  4.670694E-01
  4.674786E-01
  4.673199E-01
  4.673400E-01
  4.668086E-01
  4.665693E-01
  4.659668E-01
  4.658713E-01
  4.655932E-01
  4.659182E-01
  4.695098E-01
  4.692604E-01
  4.691540E-01
  4.683980E-01
  4.679634E-01
  4.670785E-01
  4.666845E-01
  4.659575E-01
  4.657890E-01
  4.653211E-01
  4.654313E-01
  4.652644E-01
  4.657081E-01
  4.659120E-01
  4.667439E-01
  4.672958E-01
  4.683434E-01
  4.688776E-01
  4.696073E-01
  4.695341E-01
  4.694733E-01
  4.686076E-01
  4.679528E-01
  4.668417E-01
  4.663393E-01
  4.657149E-01
  4.658874E-01
  4.659506E-01
  4.666705E-01
  4.670432E-01
  4.677998E-01
  4.679576E-01
  4.683130E-01
  4.679797E-01
  4.678677E-01
  4.672009E-01
  4.669701E-01
  4.664278E-01
  4.665287E-01
  4.664301E-01
  4.669545E-01
  4.671239E-01
  4.676614E-01
  4.675591E-01
  4.675979E-01
  4.669101E-01
  4.664641E-01
  4.655678E-01
  4.652911E-01
  4.649240E-01
  4.653945E-01
  4.657690E-01
  4.667458E-01
  4.672386E-01
  4.679281E-01
  4.678549E-01
  4.679254E-01
  4.674183E-01
  4.673979E-01
  4.671599E-01
  4.676416E-01
  4.679244E-01
  4.687328E-01
  4.690207E-01
  4.679807E-01
  4.676430E-01
  4.683445E-01
  4.676595E-01
  4.680204E-01
  4.670638E-01
  4.672395E-01
  4.661724E-01
  4.663029E-01
  4.652705E-01
  4.655519E-01
  4.648185E-01
  4.655426E-01
  4.653375E-01
  4.665729E-01
  4.667441E-01
  4.681223E-01
  4.681506E-01
  4.691053E-01
  4.684913E-01
  4.686958E-01
  4.673668E-01
  4.670386E-01
  4.654731E-01
  4.652478E-01
  4.640811E-01
  4.644381E-01
  4.639018E-01
  4.648303E-01
  4.647550E-01
  4.660254E-01
  4.661688E-01
  4.675030E-01
  4.674991E-01
  4.684369E-01
  4.678225E-01
  4.680693E-01
  4.668843E-01
  4.668687E-01
  4.658131E-01
  4.662479E-01
  4.657610E-01
  4.666345E-01
  4.662727E-01
  4.669182E-01
  4.660920E-01
  4.662514E-01
  4.651322E-01
  4.653173E-01
  4.645367E-01
  4.652532E-01
  4.650223E-01
  4.661476E-01
  4.660901E-01
  4.671394E-01
  4.668094E-01
  4.674834E-01
  4.667839E-01
  4.671945E-01
  4.664082E-01
  4.669299E-01
  4.664124E-01
  4.672646E-01
  4.670180E-01
  4.711905E-01
  4.698969E-01
  4.702432E-01
  4.682583E-01
  4.681887E-01
  4.661054E-01
  4.662149E-01
  4.645010E-01
  4.650743E-01
  4.638403E-01
  4.648610E-01
  4.640196E-01
  4.653729E-01
  4.648064E-01
  4.663761E-01
  4.659566E-01
  4.675809E-01
  4.670932E-01
  4.685036E-01
  4.676599E-01
  4.686154E-01
  4.673007E-01
  4.678731E-01
  4.663571E-01
  4.669635E-01
  4.657134E-01
  4.667579E-01
  4.660192E-01
  4.675335E-01
  4.671137E-01
  4.687137E-01
  4.681096E-01
  4.692794E-01
  4.680908E-01
  4.686678E-01
  4.670424E-01
  4.674711E-01
  4.660398E-01
  4.669550E-01
  4.661567E-01
  4.676502E-01
  4.671791E-01
  4.686200E-01
  4.677008E-01
  4.684102E-01
  4.666902E-01
  4.667838E-01
  4.648461E-01
  4.652168E-01
  4.639927E-01
  4.653145E-01
  4.650039E-01
  4.669437E-01
  4.668029E-01
  4.684664E-01
  4.677553E-01
  4.687980E-01
  4.676595E-01
  4.686221E-01
  4.677589E-01
  4.692139E-01
  4.688321E-01
  4.705297E-01
  4.700116E-01
  4.691400E-01
  4.679216E-01
  4.689613E-01
  4.673964E-01
  4.681298E-01
  4.663682E-01
  4.670279E-01
  4.652873E-01
  4.660295E-01
  4.644251E-01
  4.653762E-01
  4.640743E-01
  4.654114E-01
  4.645233E-01
  4.662165E-01
  4.655460E-01
  4.672741E-01
  4.664597E-01
  4.679057E-01
  4.667270E-01
  4.677839E-01
  4.662474E-01
  4.670336E-01
  4.653639E-01
  4.661835E-01
  4.647069E-01
  4.658356E-01
  4.647220E-01
  4.662128E-01
  4.654265E-01
  4.671881E-01
  4.665817E-01
  4.683735E-01
  4.675820E-01
  4.689466E-01
  4.675466E-01
  4.682795E-01
  4.664334E-01
  4.670764E-01
  4.655401E-01
  4.667725E-01
  4.658616E-01
  4.674908E-01
  4.665799E-01
  4.678148E-01
  4.662836E-01
  4.669288E-01
  4.650723E-01
  4.657754E-01
  4.643300E-01
  4.656519E-01
  4.648452E-01
  4.666677E-01
  4.661371E-01
  4.679980E-01
  4.673051E-01
  4.688657E-01
  4.678094E-01
  4.690256E-01
  4.677236E-01
  4.688480E-01
  4.676119E-01
  4.688992E-01
  4.678162E-01
  4.716518E-01
  4.698884E-01
  4.702977E-01
  4.680190E-01
  4.681637E-01
  4.659022E-01
  4.663018E-01
  4.644438E-01
  4.652993E-01
  4.638758E-01
  4.651042E-01
  4.639800E-01
  4.654383E-01
  4.644833E-01
  4.660574E-01
  4.651701E-01
  4.667671E-01
  4.658588E-01
  4.673910E-01
  4.663763E-01
  4.677708E-01
  4.666099E-01
  4.678818E-01
  4.666557E-01
  4.679442E-01
  4.668211E-01
  4.682805E-01
  4.673562E-01
  4.689855E-01
  4.681369E-01
  4.696870E-01
  4.685694E-01
  4.696745E-01
  4.680130E-01
  4.686088E-01
  4.666282E-01
  4.672204E-01
  4.655946E-01
  4.668330E-01
  4.659771E-01
  4.678864E-01
  4.673932E-01
  4.692293E-01
  4.682271E-01
  4.692541E-01
  4.673779E-01
  4.677296E-01
  4.655847E-01
  4.661592E-01
  4.646646E-01
  4.661290E-01
  4.655185E-01
  4.676387E-01
  4.673233E-01
  4.693661E-01
  4.686996E-01
  4.702836E-01
  4.692229E-01
  4.705974E-01
  4.695408E-01
  4.710648E-01
  4.701665E-01
  4.717082E-01
  4.705859E-01
  4.688597E-01
  4.677440E-01
  4.684628E-01
  4.673112E-01
  4.679716E-01
  4.667763E-01
  4.674090E-01
  4.661777E-01
  4.667511E-01
  4.654603E-01
  4.660320E-01
  4.648561E-01
  4.656763E-01
  4.648374E-01
  4.659921E-01
  4.653913E-01
  4.666337E-01
  4.659734E-01
  4.670571E-01
  4.662020E-01
  4.671076E-01
  4.661248E-01
  4.669696E-01
  4.659965E-01
  4.669105E-01
  4.660387E-01
  4.670498E-01
  4.662434E-01
  4.672880E-01
  4.665104E-01
  4.676097E-01
  4.669116E-01
  4.680629E-01
  4.673048E-01
  4.682217E-01
  4.670721E-01
  4.675593E-01
  4.661237E-01
  4.666270E-01
  4.655556E-01
  4.666645E-01
  4.662163E-01
  4.677217E-01
  4.672891E-01
  4.684327E-01
  4.674139E-01
  4.679744E-01
  4.665770E-01
  4.670630E-01