# vtk DataFile Version 2.0
title
ASCII
DATASET STRUCTURED_GRID
DIMENSIONS   64   64    1
POINTS   4096  float
  0.000000E+00  0.000000E+00  0.000000E+00
  0.000000E+00  3.906250E-01  0.000000E+00
  0.000000E+00  7.812500E-01  0.000000E+00
  0.000000E+00  1.171875E+00  0.000000E+00
  0.000000E+00  1.562500E+00  0.000000E+00
  0.000000E+00  1.953125E+00  0.000000E+00
  0.000000E+00  2.343750E+00  0.000000E+00
  0.000000E+00  2.734375E+00  0.000000E+00
  0.000000E+00  3.125000E+00  0.000000E+00
  0.000000E+00  3.515625E+00  0.000000E+00
  0.000000E+00  3.906250E+00  0.000000E+00
  0.000000E+00  4.296875E+00  0.000000E+00
  0.000000E+00  4.687500E+00  0.000000E+00
  0.000000E+00  5.078125E+00  0.000000E+00
  0.000000E+00  5.468750E+00  0.000000E+00
  0.000000E+00  5.859375E+00  0.000000E+00
  0.000000E+00  6.250000E+00  0.000000E+00
  0.000000E+00  6.640625E+00  0.000000E+00
  0.000000E+00  7.031250E+00  0.000000E+00
  0.000000E+00  7.421875E+00  0.000000E+00
  0.000000E+00  7.812500E+00  0.000000E+00
  0.000000E+00  8.203125E+00  0.000000E+00
  0.000000E+00  8.593750E+00  0.000000E+00
  0.000000E+00  8.984375E+00  0.000000E+00
  0.000000E+00  9.375000E+00  0.000000E+00
  0.000000E+00  9.765625E+00  0.000000E+00
  0.000000E+00  1.015625E+01  0.000000E+00
  0.000000E+00  1.054688E+01  0.000000E+00
  0.000000E+00  1.093750E+01  0.000000E+00
  0.000000E+00  1.132812E+01  0.000000E+00
  0.000000E+00  1.171875E+01  0.000000E+00
  0.000000E+00  1.210938E+01  0.000000E+00
  0.000000E+00  1.250000E+01  0.000000E+00
  0.000000E+00  1.289062E+01  0.000000E+00
  0.000000E+00  1.328125E+01  0.000000E+00
  0.000000E+00  1.367188E+01  0.000000E+00
  0.000000E+00  1.406250E+01  0.000000E+00
  0.000000E+00  1.445312E+01  0.000000E+00
  0.000000E+00  1.484375E+01  0.000000E+00
  0.000000E+00  1.523438E+01  0.000000E+00
  0.000000E+00  1.562500E+01  0.000000E+00
  0.000000E+00  1.601562E+01  0.000000E+00
  0.000000E+00  1.640625E+01  0.000000E+00
  0.000000E+00  1.679688E+01  0.000000E+00
  0.000000E+00  1.718750E+01  0.000000E+00
  0.000000E+00  1.757812E+01  0.000000E+00
  0.000000E+00  1.796875E+01  0.000000E+00
  0.000000E+00  1.835938E+01  0.000000E+00
  0.000000E+00  1.875000E+01  0.000000E+00
  0.000000E+00  1.914062E+01  0.000000E+00
  0.000000E+00  1.953125E+01  0.000000E+00
  0.000000E+00  1.992188E+01  0.000000E+00
  0.000000E+00  2.031250E+01  0.000000E+00
  0.000000E+00  2.070312E+01  0.000000E+00
  0.000000E+00  2.109375E+01  0.000000E+00
  0.000000E+00  2.148438E+01  0.000000E+00
  0.000000E+00  2.187500E+01  0.000000E+00
  0.000000E+00  2.226562E+01  0.000000E+00
  0.000000E+00  2.265625E+01  0.000000E+00
  0.000000E+00  2.304688E+01  0.000000E+00
  0.000000E+00  2.343750E+01  0.000000E+00
  0.000000E+00  2.382812E+01  0.000000E+00
  0.000000E+00  2.421875E+01  0.000000E+00
  0.000000E+00  2.460938E+01  0.000000E+00
  3.906250E-01  0.000000E+00  0.000000E+00
  3.906250E-01  3.906250E-01  0.000000E+00
  3.906250E-01  7.812500E-01  0.000000E+00
  3.906250E-01  1.171875E+00  0.000000E+00
  3.906250E-01  1.562500E+00  0.000000E+00
  3.906250E-01  1.953125E+00  0.000000E+00
  3.906250E-01  2.343750E+00  0.000000E+00
  3.906250E-01  2.734375E+00  0.000000E+00
  3.906250E-01  3.125000E+00  0.000000E+00
  3.906250E-01  3.515625E+00  0.000000E+00
  3.906250E-01  3.906250E+00  0.000000E+00
  3.906250E-01  4.296875E+00  0.000000E+00
  3.906250E-01  4.687500E+00  0.000000E+00
  3.906250E-01  5.078125E+00  0.000000E+00
  3.906250E-01  5.468750E+00  0.000000E+00
  3.906250E-01  5.859375E+00  0.000000E+00
  3.906250E-01  6.250000E+00  0.000000E+00
  3.906250E-01  6.640625E+00  0.000000E+00
  3.906250E-01  7.031250E+00  0.000000E+00
  3.906250E-01  7.421875E+00  0.000000E+00
  3.906250E-01  7.812500E+00  0.000000E+00
  3.906250E-01  8.203125E+00  0.000000E+00
  3.906250E-01  8.593750E+00  0.000000E+00
  3.906250E-01  8.984375E+00  0.000000E+00
  3.906250E-01  9.375000E+00  0.000000E+00
  3.906250E-01  9.765625E+00  0.000000E+00
  3.906250E-01  1.015625E+01  0.000000E+00
  3.906250E-01  1.054688E+01  0.000000E+00
  3.906250E-01  1.093750E+01  0.000000E+00
  3.906250E-01  1.132812E+01  0.000000E+00
  3.906250E-01  1.171875E+01  0.000000E+00
  3.906250E-01  1.210938E+01  0.000000E+00
  3.906250E-01  1.250000E+01  0.000000E+00
  3.906250E-01  1.289062E+01  0.000000E+00
  3.906250E-01  1.328125E+01  0.000000E+00
  3.906250E-01  1.367188E+01  0.000000E+00
  3.906250E-01  1.406250E+01  0.000000E+00
  3.906250E-01  1.445312E+01  0.000000E+00
  3.906250E-01  1.484375E+01  0.000000E+00
  3.906250E-01  1.523438E+01  0.000000E+00
  3.906250E-01  1.562500E+01  0.000000E+00
  3.906250E-01  1.601562E+01  0.000000E+00
  3.906250E-01  1.640625E+01  0.000000E+00
  3.906250E-01  1.679688E+01  0.000000E+00
  3.906250E-01  1.718750E+01  0.000000E+00
  3.906250E-01  1.757812E+01  0.000000E+00
  3.906250E-01  1.796875E+01  0.000000E+00
  3.906250E-01  1.835938E+01  0.000000E+00
  3.906250E-01  1.875000E+01  0.000000E+00
  3.906250E-01  1.914062E+01  0.000000E+00
  3.906250E-01  1.953125E+01  0.000000E+00
  3.906250E-01  1.992188E+01  0.000000E+00
  3.906250E-01  2.031250E+01  0.000000E+00
  3.906250E-01  2.070312E+01  0.000000E+00
  3.906250E-01  2.109375E+01  0.000000E+00
  3.906250E-01  2.148438E+01  0.000000E+00
  3.906250E-01  2.187500E+01  0.000000E+00
  3.906250E-01  2.226562E+01  0.000000E+00
  3.906250E-01  2.265625E+01  0.000000E+00
  3.906250E-01  2.304688E+01  0.000000E+00
  3.906250E-01  2.343750E+01  0.000000E+00
  3.906250E-01  2.382812E+01  0.000000E+00
  3.906250E-01  2.421875E+01  0.000000E+00
  3.906250E-01  2.460938E+01  0.000000E+00
  7.812500E-01  0.000000E+00  0.000000E+00
  7.812500E-01  3.906250E-01  0.000000E+00
  7.812500E-01  7.812500E-01  0.000000E+00
  7.812500E-01  1.171875E+00  0.000000E+00
  7.812500E-01  1.562500E+00  0.000000E+00
  7.812500E-01  1.953125E+00  0.000000E+00
  7.812500E-01  2.343750E+00  0.000000E+00
  7.812500E-01  2.734375E+00  0.000000E+00
  7.812500E-01  3.125000E+00  0.000000E+00
  7.812500E-01  3.515625E+00  0.000000E+00
  7.812500E-01  3.906250E+00  0.000000E+00
  7.812500E-01  4.296875E+00  0.000000E+00
  7.812500E-01  4.687500E+00  0.000000E+00
  7.812500E-01  5.078125E+00  0.000000E+00
  7.812500E-01  5.468750E+00  0.000000E+00
  7.812500E-01  5.859375E+00  0.000000E+00
  7.812500E-01  6.250000E+00  0.000000E+00
  7.812500E-01  6.640625E+00  0.000000E+00
  7.812500E-01  7.031250E+00  0.000000E+00
  7.812500E-01  7.421875E+00  0.000000E+00
  7.812500E-01  7.812500E+00  0.000000E+00
  7.812500E-01  8.203125E+00  0.000000E+00
  7.812500E-01  8.593750E+00  0.000000E+00
  7.812500E-01  8.984375E+00  0.000000E+00
  7.812500E-01  9.375000E+00  0.000000E+00
  7.812500E-01  9.765625E+00  0.000000E+00
  7.812500E-01  1.015625E+01  0.000000E+00
  7.812500E-01  1.054688E+01  0.000000E+00
  7.812500E-01  1.093750E+01  0.000000E+00
  7.812500E-01  1.132812E+01  0.000000E+00
  7.812500E-01  1.171875E+01  0.000000E+00
  7.812500E-01  1.210938E+01  0.000000E+00
  7.812500E-01  1.250000E+01  0.000000E+00
  7.812500E-01  1.289062E+01  0.000000E+00
  7.812500E-01  1.328125E+01  0.000000E+00
  7.812500E-01  1.367188E+01  0.000000E+00
  7.812500E-01  1.406250E+01  0.000000E+00
  7.812500E-01  1.445312E+01  0.000000E+00
  7.812500E-01  1.484375E+01  0.000000E+00
  7.812500E-01  1.523438E+01  0.000000E+00
  7.812500E-01  1.562500E+01  0.000000E+00
  7.812500E-01  1.601562E+01  0.000000E+00
  7.812500E-01  1.640625E+01  0.000000E+00
  7.812500E-01  1.679688E+01  0.000000E+00
  7.812500E-01  1.718750E+01  0.000000E+00
  7.812500E-01  1.757812E+01  0.000000E+00
  7.812500E-01  1.796875E+01  0.000000E+00
  7.812500E-01  1.835938E+01  0.000000E+00
  7.812500E-01  1.875000E+01  0.000000E+00
  7.812500E-01  1.914062E+01  0.000000E+00
  7.812500E-01  1.953125E+01  0.000000E+00
  7.812500E-01  1.992188E+01  0.000000E+00
  7.812500E-01  2.031250E+01  0.000000E+00
  7.812500E-01  2.070312E+01  0.000000E+00
  7.812500E-01  2.109375E+01  0.000000E+00
  7.812500E-01  2.148438E+01  0.000000E+00
  7.812500E-01  2.187500E+01  0.000000E+00
  7.812500E-01  2.226562E+01  0.000000E+00
  7.812500E-01  2.265625E+01  0.000000E+00
  7.812500E-01  2.304688E+01  0.000000E+00
  7.812500E-01  2.343750E+01  0.000000E+00
  7.812500E-01  2.382812E+01  0.000000E+00
  7.812500E-01  2.421875E+01  0.000000E+00
  7.812500E-01  2.460938E+01  0.000000E+00
  1.171875E+00  0.000000E+00  0.000000E+00
  1.171875E+00  3.906250E-01  0.000000E+00
  1.171875E+00  7.812500E-01  0.000000E+00
  1.171875E+00  1.171875E+00  0.000000E+00
  1.171875E+00  1.562500E+00  0.000000E+00
  1.171875E+00  1.953125E+00  0.000000E+00
  1.171875E+00  2.343750E+00  0.000000E+00
  1.171875E+00  2.734375E+00  0.000000E+00
  1.171875E+00  3.125000E+00  0.000000E+00
  1.171875E+00  3.515625E+00  0.000000E+00
  1.171875E+00  3.906250E+00  0.000000E+00
  1.171875E+00  4.296875E+00  0.000000E+00
  1.171875E+00  4.687500E+00  0.000000E+00
  1.171875E+00  5.078125E+00  0.000000E+00
  1.171875E+00  5.468750E+00  0.000000E+00
  1.171875E+00  5.859375E+00  0.000000E+00
  1.171875E+00  6.250000E+00  0.000000E+00
  1.171875E+00  6.640625E+00  0.000000E+00
  1.171875E+00  7.031250E+00  0.000000E+00
  1.171875E+00  7.421875E+00  0.000000E+00
  1.171875E+00  7.812500E+00  0.000000E+00
  1.171875E+00  8.203125E+00  0.000000E+00
  1.171875E+00  8.593750E+00  0.000000E+00
  1.171875E+00  8.984375E+00  0.000000E+00
  1.171875E+00  9.375000E+00  0.000000E+00
  1.171875E+00  9.765625E+00  0.000000E+00
  1.171875E+00  1.015625E+01  0.000000E+00
  1.171875E+00  1.054688E+01  0.000000E+00
  1.171875E+00  1.093750E+01  0.000000E+00
  1.171875E+00  1.132812E+01  0.000000E+00
  1.171875E+00  1.171875E+01  0.000000E+00
  1.171875E+00  1.210938E+01  0.000000E+00
  1.171875E+00  1.250000E+01  0.000000E+00
  1.171875E+00  1.289062E+01  0.000000E+00
  1.171875E+00  1.328125E+01  0.000000E+00
  1.171875E+00  1.367188E+01  0.000000E+00
  1.171875E+00  1.406250E+01  0.000000E+00
  1.171875E+00  1.445312E+01  0.000000E+00
[...]
POINT_DATA   4096
SCALARS CON  float  1
LOOKUP_TABLE default
  4.694980E-01
  4.685820E-01
  4.711869E-01
  4.697063E-01
  4.714417E-01
  4.691763E-01
  4.704854E-01
  4.682063E-01
  4.697724E-01
  4.678049E-01
  4.695860E-01
  4.677231E-01
  4.695960E-01
  4.679259E-01
  4.701232E-01
  4.688178E-01
  4.712458E-01
  4.698700E-01
  4.718545E-01
  4.697255E-01
  4.708275E-01
  4.679197E-01
  4.685541E-01
  4.656078E-01
  4.666256E-01
  4.643564E-01
  4.661399E-01
  4.645146E-01
  4.666828E-01
  4.651685E-01
  4.672755E-01
  4.656810E-01
  4.678037E-01
  4.663303E-01
  4.685787E-01
  4.670866E-01
  4.690651E-01
  4.670561E-01
  4.683948E-01
  4.658174E-01
  4.668485E-01
  4.643440E-01
  4.658480E-01
  4.641369E-01
  4.665917E-01
  4.657678E-01
  4.688089E-01
  4.680816E-01
  4.706697E-01
  4.690670E-01
  4.706628E-01
  4.683354E-01
  4.697736E-01
  4.679166E-01
  4.702198E-01
  4.691815E-01
  4.718099E-01
  4.703720E-01
  4.719870E-01
  4.693358E-01
  4.700653E-01
  4.672500E-01
  4.686116E-01
  4.669500E-01
  4.713693E-01
  4.708600E-01
  4.722710E-01
  4.708603E-01
  4.712207E-01
  4.690241E-01
  4.691500E-01
  4.673135E-01
  4.681940E-01
  4.671777E-01
  4.686530E-01
  4.678834E-01
  4.693324E-01
  4.684575E-01
  4.698994E-01
  4.691655E-01
  4.707940E-01
  4.701045E-01
  4.714784E-01
  4.702057E-01
  4.707922E-01
  4.687565E-01
  4.688417E-01
  4.667210E-01
  4.671600E-01
  4.657254E-01
  4.669900E-01
  4.663013E-01
  4.680465E-01
  4.674696E-01
  4.689635E-01
  4.678852E-01
  4.688109E-01
  4.672861E-01
  4.680091E-01
  4.665344E-01
  4.674590E-01
  4.661814E-01
  4.671698E-01
  4.657897E-01
  4.665923E-01
  4.651036E-01
  4.660324E-01
  4.649749E-01
  4.665740E-01
  4.662339E-01
  4.683501E-01
  4.681302E-01
  4.699212E-01
  4.690714E-01
  4.702124E-01
  4.689983E-01
  4.702389E-01
  4.695371E-01
  4.714291E-01
  4.711463E-01
  4.729385E-01
  4.719866E-01
  4.727640E-01
  4.708525E-01
  4.711201E-01
  4.693551E-01
  4.703501E-01
  4.695684E-01
  4.679744E-01
  4.688668E-01
  4.701179E-01
  4.703425E-01
  4.704840E-01
  4.696523E-01
  4.691851E-01
  4.683292E-01
  4.682877E-01
  4.680189E-01
  4.684564E-01
  4.684373E-01
  4.689450E-01
  4.689597E-01
  4.695811E-01
  4.697918E-01
  4.705724E-01
  4.707331E-01
  4.711296E-01
  4.705707E-01
  4.700512E-01
  4.686147E-01
  4.675017E-01
  4.659256E-01
  4.651626E-01
  4.643181E-01
  4.644580E-01
  4.644519E-01
  4.651884E-01
  4.654741E-01
  4.662522E-01
  4.664503E-01
  4.671213E-01
  4.672295E-01
  4.677784E-01
  4.676400E-01
  4.677547E-01
  4.670195E-01
  4.665004E-01
  4.652815E-01
  4.646080E-01
  4.636688E-01
  4.637012E-01
  4.637694E-01
  4.648950E-01
  4.658820E-01
  4.675116E-01
  4.684409E-01
  4.694639E-01
  4.694385E-01
  4.695050E-01
  4.688937E-01
  4.689853E-01
  4.689910E-01
  4.699884E-01
  4.707139E-01
  4.718097E-01
  4.718299E-01
  4.715981E-01
  4.701576E-01
  4.689219E-01
  4.673619E-01
  4.669602E-01
  4.668624E-01
  4.694292E-01
  4.707355E-01
  4.706285E-01
  4.709566E-01
  4.696428E-01
  4.690102E-01
  4.673489E-01
  4.670875E-01
  4.663278E-01
  4.671194E-01
  4.671816E-01
  4.683524E-01
  4.683828E-01
  4.693253E-01
  4.691777E-01
  4.701218E-01
  4.700992E-01
  4.710981E-01
  4.708557E-01
  4.712733E-01
  4.701799E-01
  4.697120E-01
  4.679751E-01
  4.673102E-01
  4.658826E-01
  4.659412E-01
  4.654507E-01
  4.664186E-01
  4.665940E-01
  4.678454E-01
  4.678920E-01
  4.686866E-01
  4.681203E-01
  4.683469E-01
  4.674125E-01
  4.675225E-01
  4.666598E-01
  4.668974E-01
  4.660976E-01
  4.662962E-01
  4.654255E-01
  4.656576E-01
  4.650446E-01
  4.657830E-01
  4.658195E-01
  4.671474E-01
  4.674969E-01
  4.687331E-01
  4.686175E-01
  4.692108E-01
  4.685625E-01
  4.689883E-01
  4.686343E-01
  4.696913E-01
  4.699976E-01
  4.713860E-01
  4.714562E-01
  4.720448E-01
  4.710130E-01
  4.706125E-01
  4.690957E-01
  4.689127E-01
  4.682323E-01
  4.691675E-01
  4.659155E-01
  4.683304E-01
  4.681605E-01
  4.699213E-01
  4.686282E-01
  4.692913E-01
  4.673487E-01
  4.679870E-01
  4.665334E-01
  4.678754E-01
  4.670272E-01
  4.687018E-01
  4.679314E-01
  4.695794E-01
  4.688345E-01
  4.706095E-01
  4.699983E-01
  4.717294E-01
  4.707331E-01
  4.716974E-01
  4.696786E-01
  4.696207E-01
  4.668704E-01
  4.665860E-01
  4.641742E-01
  4.646839E-01
  4.632906E-01
  4.647810E-01
  4.641302E-01
  4.660432E-01
  4.655326E-01
  4.674093E-01
  4.667858E-01
  4.685108E-01
  4.676633E-01
  4.690260E-01
  4.676444E-01
  4.683509E-01
  4.663305E-01
  4.666027E-01
  4.645161E-01
  4.651621E-01
  4.638354E-01
  4.654569E-01
  4.650796E-01
  4.673777E-01
  4.672213E-01
  4.692231E-01
  4.683443E-01
  4.694325E-01
  4.677662E-01
  4.684866E-01
  4.670224E-01
  4.684376E-01
  4.678590E-01
  4.699298E-01
  4.694133E-01
  4.708192E-01
  4.690920E-01
  4.691855E-01
  4.665743E-01
  4.665995E-01
  4.648047E-01
  4.662401E-01
  4.675563E-01
  4.698460E-01
  4.686717E-01
  4.701393E-01
  4.679212E-01
  4.685317E-01
  4.659845E-01
  4.669185E-01
  4.652020E-01
  4.671340E-01
  4.662161E-01
  4.685284E-01
  4.675886E-01
  4.696824E-01
  4.685774E-01
  4.706945E-01
  4.697411E-01
  4.719245E-01
  4.707210E-01
  4.722360E-01
  4.700484E-01
  4.705370E-01
  4.676050E-01
  4.678698E-01
  4.653000E-01
  4.663965E-01
  4.648890E-01
  4.670048E-01
  4.662430E-01
  4.686942E-01
  4.678360E-01
  4.698476E-01
  4.683751E-01
  4.697912E-01
  4.678948E-01
  4.691191E-01
  4.672188E-01
  4.685188E-01
  4.666732E-01
  4.679754E-01
  4.661334E-01
  4.675388E-01
  4.659687E-01
  4.677946E-01
  4.666736E-01
  4.688040E-01
  4.676989E-01
  4.695180E-01
  4.678732E-01
  4.691323E-01
  4.671439E-01
  4.684386E-01
  4.668752E-01
  4.688231E-01
  4.678654E-01
  4.700952E-01
  4.689400E-01
  4.705328E-01
  4.685277E-01
  4.693824E-01
  4.670433E-01
  4.681098E-01
  4.664599E-01
  4.684347E-01
  4.644314E-01
  4.671840E-01
  4.664609E-01
  4.688766E-01
  4.673657E-01
  4.689139E-01
  4.668071E-01
  4.682111E-01
  4.663660E-01
  4.682278E-01
  4.667990E-01
  4.688992E-01
  4.675490E-01
  4.696941E-01
  4.684776E-01
  4.708604E-01
  4.698598E-01
  4.722268E-01
  4.708015E-01
  4.723027E-01
  4.697292E-01
  4.701049E-01
  4.667640E-01
  4.669641E-01
  4.640827E-01
  4.652210E-01
  4.634727E-01
  4.656423E-01
  4.646207E-01
  4.671572E-01
  4.662165E-01
  4.686788E-01
  4.676122E-01
  4.699194E-01
  4.686139E-01
  4.705218E-01
  4.686309E-01
  4.698398E-01
  4.673010E-01
  4.681124E-01
  4.655771E-01
  4.668264E-01
  4.650590E-01
  4.671952E-01
  4.661850E-01
  4.687406E-01
  4.677032E-01
  4.698040E-01
  4.680258E-01
  4.693275E-01
  4.669450E-01
  4.680398E-01
  4.659259E-01
  4.676738E-01
  4.663497E-01
  4.686977E-01
  4.675029E-01
  4.693973E-01
  4.672890E-01
  4.681397E-01
  4.652715E-01
  4.659757E-01
  4.636759E-01
  4.654843E-01
  4.665166E-01
  4.685648E-01
  4.673563E-01
  4.690340E-01
  4.672450E-01
  4.683788E-01
  4.663228E-01
  4.675862E-01
  4.659946E-01
  4.678466E-01
  4.667235E-01
  4.687792E-01
  4.676230E-01
  4.695767E-01
  4.684362E-01
  4.705932E-01
  4.697331E-01
  4.720075E-01
  4.708702E-01
  4.723966E-01
  4.701891E-01
  4.706470E-01
  4.677321E-01
  4.680845E-01
  4.656948E-01
  4.670255E-01
  4.657693E-01
  4.680851E-01
  4.674493E-01
  4.699336E-01
  4.690529E-01
  4.710099E-01
  4.694954E-01
  4.708812E-01
  4.689727E-01
  4.701731E-01
  4.682403E-01
  4.694896E-01
  4.676071E-01
  4.688948E-01
  4.670845E-01
  4.685419E-01
  4.670222E-01
  4.688376E-01
  4.676230E-01
  4.695570E-01
  4.681963E-01
  4.697441E-01
  4.678859E-01
  4.690104E-01
  4.669722E-01
  4.682421E-01
  4.666315E-01
  4.684548E-01
  4.673123E-01
  4.693357E-01
  4.680433E-01
  4.696171E-01
  4.677361E-01
  4.687904E-01
  4.666395E-01
  4.677663E-01
  4.660070E-01
  4.677122E-01
  4.637795E-01
  4.659162E-01
  4.655337E-01
  4.678487E-01
  4.671930E-01
  4.689801E-01
  4.677802E-01
  4.691778E-01
  4.677900E-01
  4.691422E-01
  4.677617E-01
  4.691320E-01
  4.678164E-01
  4.693770E-01
  4.684179E-01
  4.704342E-01
  4.698466E-01
  4.719176E-01
  4.709019E-01
  4.720657E-01
  4.698698E-01
  4.699275E-01
  4.670553E-01
  4.670865E-01
  4.648342E-01
  4.659121E-01
  4.647951E-01
  4.667820E-01
  4.661741E-01
  4.682802E-01
  4.675493E-01
  4.694714E-01
  4.686061E-01
  4.704327E-01
  4.694052E-01
  4.708856E-01
  4.692895E-01
  4.700684E-01
  4.678332E-01
  4.682551E-01
  4.660908E-01
  4.670164E-01
  4.656468E-01
  4.674230E-01
  4.667177E-01
  4.688017E-01
  4.679932E-01
  4.696264E-01
  4.681714E-01
  4.691574E-01
  4.672428E-01
  4.680919E-01
  4.664044E-01
  4.677686E-01
  4.667004E-01
  4.685457E-01
  4.676019E-01
  4.691095E-01
  4.674301E-01
  4.680333E-01
  4.656003E-01
  4.658925E-01
  4.637389E-01
  4.648409E-01
  4.661688E-01
  4.674827E-01
  4.667649E-01
  4.681879E-01
  4.673660E-01
  4.685560E-01
  4.675028E-01
  4.685702E-01
  4.675289E-01
  4.686815E-01
  4.677041E-01
  4.688508E-01
  4.678432E-01
  4.690506E-01
  4.682929E-01
  4.699247E-01
  4.696019E-01
  4.714261E-01
  4.708418E-01
  4.719128E-01
  4.702713E-01
  4.703310E-01
  4.680874E-01
  4.681723E-01
  4.665654E-01
  4.676686E-01
  4.671260E-01
  4.690320E-01
  4.688515E-01
  4.706599E-01
  4.700326E-01
  4.712216E-01
  4.699801E-01
  4.706918E-01
  4.691695E-01
  4.697846E-01
  4.682881E-01
  4.689781E-01
  4.675611E-01
  4.683395E-01
  4.670605E-01
  4.680647E-01
  4.670940E-01
  4.684226E-01
  4.676861E-01
  4.690640E-01
  4.681597E-01
  4.692070E-01
  4.679348E-01
  4.687237E-01
  4.674109E-01
  4.684018E-01
  4.674622E-01
  4.688570E-01
  4.681968E-01
  4.696358E-01
  4.687582E-01
  4.697802E-01
  4.684063E-01
  4.689851E-01
  4.673268E-01
  4.678395E-01
  4.663429E-01
  4.672069E-01
  4.637053E-01
  4.651966E-01
  4.652474E-01
  4.672601E-01
  4.673952E-01
  4.691208E-01
  4.687388E-01
  4.698689E-01
  4.689278E-01
  4.696019E-01
  4.683483E-01
  4.688949E-01
  4.677461E-01
  4.686549E-01
  4.680821E-01
  4.696384E-01
  4.695610E-01
  4.712288E-01
  4.707409E-01
  4.715142E-01
  4.698785E-01
  4.696050E-01
  4.673684E-01
  4.671362E-01
  4.655491E-01
  4.663263E-01
  4.657563E-01
  4.672529E-01
  4.669669E-01
  4.683763E-01
  4.678315E-01
  4.690202E-01
  4.683968E-01
  4.696018E-01
  4.689371E-01
  4.698920E-01
  4.687230E-01
  4.690240E-01
  4.672677E-01
  4.672761E-01
  4.656553E-01
  4.662057E-01
  4.653679E-01
  4.667048E-01
  4.664398E-01
  4.680097E-01
  4.676281E-01
  4.688193E-01
  4.679393E-01
  4.686652E-01
  4.674814E-01
  4.681444E-01
  4.671504E-01
  4.681896E-01
  4.676200E-01
  4.689538E-01
  4.683875E-01
  4.693533E-01
  4.680950E-01
  4.682216E-01
  4.662336E-01
  4.659902E-01
  4.641447E-01
  4.645524E-01
  4.664202E-01
  4.672670E-01
  4.668136E-01
  4.679013E-01
  4.675298E-01
  4.685351E-01
  4.679667E-01
  4.687363E-01
  4.679550E-01
  4.685601E-01
  4.676641E-01
  4.682173E-01
  4.673797E-01
  4.681660E-01
  4.677616E-01
  4.691083E-01
  4.692070E-01
  4.707629E-01
  4.705997E-01
  4.714125E-01
  4.702201E-01
  4.700547E-01
  4.682767E-01
  4.681173E-01
  4.669126E-01
  4.676676E-01
  4.673952E-01
  4.688131E-01
  4.687804E-01
  4.700213E-01
  4.695228E-01
  4.701869E-01
  4.691607E-01
  4.694481E-01
  4.682289E-01
  4.684831E-01
  4.673375E-01
  4.677186E-01
  4.667222E-01
  4.672733E-01
  4.664816E-01
  4.672763E-01
  4.667392E-01
  4.677389E-01
  4.672879E-01
  4.682149E-01
  4.675522E-01
  4.682103E-01
  4.673371E-01
  4.679450E-01
  4.672248E-01
  4.681498E-01
  4.678005E-01
  4.690098E-01
  4.687418E-01
  4.697842E-01
  4.691431E-01
  4.697130E-01
  4.686252E-01
  4.688694E-01
  4.676185E-01
  4.678583E-01
  4.667373E-01
  4.672169E-01
  4.643832E-01
  4.655421E-01
  4.656983E-01
  4.672730E-01
  4.675159E-01
  4.688671E-01
  4.686516E-01
  4.694142E-01
  4.685921E-01
  4.688381E-01
  4.676863E-01
  4.678663E-01
  4.669524E-01
  4.676540E-01
  4.674448E-01
  4.688557E-01
  4.691385E-01
  4.706252E-01
  4.704696E-01
  4.710623E-01
  4.697773E-01
  4.693272E-01
  4.673986E-01
  4.668880E-01
  4.654642E-01
  4.658119E-01
  4.652876E-01
  4.662995E-01
  4.660762E-01
  4.670801E-01
  4.667152E-01
  4.676224E-01
  4.672797E-01
  4.682616E-01
  4.678932E-01
  4.686175E-01
  4.677455E-01
  4.678526E-01
  4.664725E-01
  4.663864E-01
  4.652169E-01
  4.656760E-01
  4.651949E-01
  4.662594E-01
  4.661317E-01
  4.672408E-01
  4.669044E-01
  4.676756E-01
  4.670079E-01
  4.675579E-01
  4.668307E-01
  4.674841E-01
  4.669819E-01
  4.679064E-01
  4.676227E-01
  4.686105E-01
  4.681592E-01
  4.687341E-01
  4.676926E-01
  4.676433E-01
  4.661232E-01
  4.658978E-01
  4.645827E-01
  4.649147E-01
  4.675995E-01
  4.681118E-01
  4.677049E-01
  4.681463E-01
  4.676701E-01
  4.680281E-01
  4.674492E-01
  4.676988E-01
  4.670297E-01
  4.672302E-01
  4.665730E-01
  4.668709E-01
  4.664294E-01
  4.670879E-01
  4.671387E-01
  4.683353E-01
  4.688104E-01
  4.701306E-01
  4.702969E-01
  4.708795E-01
  4.700468E-01
  4.696535E-01
  4.681644E-01
  4.676242E-01
  4.665090E-01
  4.667020E-01
  4.664216E-01
  4.673021E-01
  4.674043E-01
  4.683271E-01
  4.681962E-01
  4.687262E-01
  4.681614E-01
  4.683097E-01
  4.674746E-01
  4.674917E-01
  4.666672E-01
  4.668207E-01
  4.662287E-01
  4.666708E-01
  4.663744E-01
  4.670614E-01
  4.668987E-01
  4.675607E-01
  4.672030E-01
  4.675439E-01
  4.668388E-01
  4.669353E-01
  4.662010E-01
  4.665303E-01
  4.662439E-01
  4.671030E-01
  4.672516E-01
  4.682962E-01
  4.683099E-01
  4.689432E-01
  4.684139E-01
  4.685600E-01
  4.677526E-01
  4.678874E-01
  4.672833E-01
  4.677120E-01
  4.673626E-01
  4.679301E-01
  4.660391E-01
  4.667048E-01
  4.669736E-01
  4.676179E-01
  4.677311E-01
  4.681189E-01
  4.679050E-01
  4.679276E-01
  4.673591E-01
  4.671102E-01
  4.664375E-01
  4.663207E-01
  4.660375E-01
  4.665181E-01
  4.669197E-01
  4.680038E-01
  4.687521E-01
  4.697933E-01
  4.700619E-01
  4.702517E-01
  4.694735E-01
  4.686693E-01
  4.672004E-01
  4.661791E-01
  4.649928E-01
  4.646270E-01
  4.642435E-01
  4.646008E-01
  4.647254E-01
  4.653691E-01
  4.656443E-01
  4.663963E-01
  4.667608E-01
  4.675163E-01
  4.676925E-01
  4.680121E-01
  4.675664E-01
  4.672557E-01
  4.663911E-01
  4.660282E-01
  4.654887E-01
  4.656848E-01
  4.657071E-01
  4.662549E-01
  4.663143E-01
  4.666221E-01
  4.663117E-01
  4.662996E-01
  4.658534E-01
  4.659330E-01
  4.657579E-01
  4.661838E-01
  4.663160E-01
  4.669211E-01
  4.670566E-01
  4.674845E-01
  4.672974E-01
  4.673268E-01
  4.667599E-01
  4.665293E-01
  4.658999E-01
  4.658299E-01
  4.655449E-01
  4.659101E-01
  4.695719E-01
  4.693347E-01
  4.691897E-01
  4.684274E-01
  4.679566E-01
  4.670795E-01
  4.666643E-01
  4.659550E-01
  4.657693E-01
  4.653195E-01
  4.654115E-01
  4.652608E-01
  4.656848E-01
  4.659058E-01
  4.667243E-01
  4.673069E-01
  4.683593E-01
  4.689394E-01
  4.696766E-01
  4.696330E-01
  4.695460E-01
  4.686690E-01
  4.679540E-01
  4.668164E-01
  4.662609E-01
  4.656338E-01
  4.657828E-01
  4.658696E-01
  4.665848E-01
  4.669930E-01
  4.677522E-01
  4.679484E-01
  4.683032E-01
  4.679980E-01
  4.678698E-01
  4.672150E-01
  4.669573E-01
  4.664247E-01
  4.665049E-01
  4.664280E-01
  4.669458E-01
  4.671496E-01
  4.676874E-01
  4.676158E-01
  4.676385E-01
  4.669548E-01
  4.664636E-01
  4.655520E-01
  4.652298E-01
  4.648692E-01
  4.653317E-01
  4.657516E-01
  4.667444E-01
  4.672794E-01
  4.679528E-01
  4.678714E-01
  4.678765E-01
  4.673347E-01
  4.672597E-01
  4.670341E-01
  4.675275E-01
  4.678819E-01
  4.687314E-01
  4.690815E-01
  4.680526E-01
  4.677312E-01
  4.684101E-01
  4.677029E-01
  4.680266E-01
  4.670579E-01
  4.672202E-01
  4.661627E-01
  4.662883E-01
  4.652609E-01
  4.655286E-01
  4.647976E-01
  4.655162E-01
  4.653291E-01
  4.665736E-01
  4.667699E-01
  4.681559E-01
  4.682030E-01
  4.691584E-01
  4.685553E-01
  4.687474E-01
  4.674083E-01
  4.670426E-01
  4.654475E-01
  4.651814E-01
  4.640015E-01
  4.643461E-01
  4.638235E-01
  4.647550E-01
  4.646971E-01
  4.659720E-01
  4.661420E-01
  4.674985E-01
  4.675374E-01
  4.684969E-01
  4.678995E-01
  4.681233E-01
  4.669109E-01
  4.668498E-01
  4.657780E-01
  4.662071E-01
  4.657524E-01
  4.666530E-01
  4.663243E-01
  4.669660E-01
  4.661258E-01
  4.662405E-01
  4.650914E-01
  4.652469E-01
  4.644742E-01
  4.652036E-01
  4.650092E-01
  4.661518E-01
  4.661118E-01
  4.671456E-01
  4.667993E-01
  4.674338E-01
  4.667095E-01
  4.670894E-01
  4.663039E-01
  4.668333E-01
  4.663593E-01
  4.672536E-01
  4.670635E-01
  4.713029E-01
  4.699918E-01
  4.703126E-01
  4.682789E-01
  4.681802E-01
  4.660652E-01
  4.661715E-01
  4.644499E-01
  4.650368E-01
  4.638053E-01
  4.648451E-01
  4.640087E-01
  4.653805E-01
  4.648141E-01
  4.663938E-01
  4.659656E-01
  4.675944E-01
  4.670985E-01
  4.685190E-01
  4.676725E-01
  4.686384E-01
  4.673133E-01
  4.678819E-01
  4.663401E-01
  4.669321E-01
  4.656542E-01
  4.666924E-01
  4.659434E-01
  4.674759E-01
  4.670737E-01
  4.687164E-01
  4.681422E-01
  4.693482E-01
  4.681638E-01
  4.687391E-01
  4.670807E-01
  4.674845E-01
  4.660181E-01
  4.669264E-01
  4.661235E-01
  4.676424E-01
  4.671905E-01
  4.686638E-01
  4.677501E-01
  4.684593E-01
  4.667025E-01
  4.667594E-01
  4.647698E-01
  4.651193E-01
  4.638867E-01
  4.652436E-01
  4.649729E-01
  4.669693E-01
  4.668536E-01
  4.685274E-01
  4.677798E-01
  4.687785E-01
  4.675777E-01
  4.685106E-01
  4.676359E-01
  4.691309E-01
  4.688004E-01
  4.705705E-01
  4.700954E-01
  4.692160E-01
  4.679806E-01
  4.690245E-01
  4.674045E-01
  4.681245E-01
  4.663159E-01
  4.669872E-01
  4.652262E-01
  4.659960E-01
  4.643744E-01
  4.653512E-01
  4.640341E-01
  4.654053E-01
  4.645109E-01
  4.662380E-01
  4.655473E-01
  4.672869E-01
  4.664342E-01
  4.678888E-01
  4.666858E-01
  4.677728E-01
  4.662268E-01
  4.670434E-01
  4.653523E-01
  4.661882E-01
  4.646834E-01
  4.658312E-01
  4.646968E-01
  4.662129E-01
  4.654104E-01
  4.672042E-01
  4.665948E-01
  4.684351E-01
  4.676485E-01
  4.690492E-01
  4.676182E-01
  4.683388E-01
  4.664226E-01
  4.670444E-01
  4.654668E-01
  4.667331E-01
  4.658371E-01
  4.675309E-01
  4.666252E-01
  4.678789E-01
  4.662927E-01
  4.669101E-01
  4.649865E-01
  4.656878E-01
  4.642261E-01
  4.655987E-01
  4.648085E-01
  4.666862E-01
  4.661534E-01
  4.680409E-01
  4.673201E-01
  4.688905E-01
  4.677976E-01
  4.690208E-01
  4.676859E-01
  4.688305E-01
  4.675850E-01
  4.689200E-01
  4.678465E-01
  4.717257E-01
  4.699217E-01
  4.703373E-01
  4.679970E-01
  4.681426E-01
  4.658288E-01
  4.662476E-01
  4.643575E-01
  4.652497E-01
  4.638077E-01
  4.650829E-01
  4.639465E-01
  4.654517E-01
  4.644757E-01
  4.660790E-01
  4.651485E-01
  4.667559E-01
  4.657973E-01
  4.673480E-01
  4.663037E-01
  4.677421E-01
  4.665719E-01
  4.678966E-01
  4.666574E-01
  4.679851E-01
  4.668315E-01
  4.683159E-01
  4.673558E-01
  4.690166E-01
  4.681489E-01
  4.697504E-01
  4.686254E-01
  4.697759E-01
  4.680812E-01
  4.686843E-01
  4.666349E-01
  4.672162E-01
  4.655291E-01
  4.667877E-01
  4.659144E-01
  4.678861E-01
  4.674022E-01
  4.693028E-01
  4.682855E-01
  4.693323E-01
  4.673898E-01
  4.677217E-01
  4.654978E-01
  4.660722E-01
  4.645437E-01
  4.660622E-01
  4.654627E-01
  4.676597E-01
  4.673516E-01
  4.694464E-01
  4.687516E-01
  4.703524E-01
  4.692385E-01
  4.706214E-01
  4.695215E-01
  4.710775E-01
  4.701636E-01
  4.717574E-01
  4.706231E-01
  4.688720E-01
  4.677387E-01
  4.684867E-01
  4.672935E-01
  4.679638E-01
  4.667242E-01
  4.673793E-01
  4.661201E-01
  4.667255E-01
  4.654067E-01
  4.660070E-01
  4.648049E-01
  4.656631E-01
  4.648087E-01
  4.660028E-01
  4.653727E-01
  4.666306E-01
  4.659209E-01
  4.670165E-01
  4.661285E-01
  4.670749E-01
  4.660858E-01
  4.669849E-01
  4.660046E-01
  4.669638E-01
  4.660747E-01
  4.671217E-01
  4.662872E-01
  4.673540E-01
  4.665353E-01
  4.676524E-01
  4.669225E-01
  4.681106E-01
  4.673366E-01
  4.682885E-01
  4.670984E-01
  4.675832E-01
  4.660781E-01
  4.665785E-01
  4.654720E-01
  4.666351E-01
  4.662054E-01
  4.677893E-01
  4.673578E-01
  4.685283E-01
  4.674487E-01
  4.679916E-01
  4.665234E-01
  4.670152E-01