# vtk DataFile Version 2.0
title
ASCII
DATASET STRUCTURED_GRID
DIMENSIONS   64   64    1
POINTS   4096  float
  0.000000E+00  0.000000E+00  0.000000E+00
  0.000000E+00  3.906250E-01  0.000000E+00
  0.000000E+00  7.812500E-01  0.000000E+00
  0.000000E+00  1.171875E+00  0.000000E+00
  0.000000E+00  1.562500E+00  0.000000E+00
  0.000000E+00  1.953125E+00  0.000000E+00
  0.000000E+00  2.343750E+00  0.000000E+00
  0.000000E+00  2.734375E+00  0.000000E+00
  0.000000E+00  3.125000E+00  0.000000E+00
  0.000000E+00  3.515625E+00  0.000000E+00
  0.000000E+00  3.906250E+00  0.000000E+00
  0.000000E+00  4.296875E+00  0.000000E+00
  0.000000E+00  4.687500E+00  0.000000E+00
  0.000000E+00  5.078125E+00  0.000000E+00
  0.000000E+00  5.468750E+00  0.000000E+00
  0.000000E+00  5.859375E+00  0.000000E+00
  0.000000E+00  6.250000E+00  0.000000E+00
  0.000000E+00  6.640625E+00  0.000000E+00
  0.000000E+00  7.031250E+00  0.000000E+00
  0.000000E+00  7.421875E+00  0.000000E+00
  0.000000E+00  7.812500E+00  0.000000E+00
  0.000000E+00  8.203125E+00  0.000000E+00
  0.000000E+00  8.593750E+00  0.000000E+00
  0.000000E+00  8.984375E+00  0.000000E+00
  0.000000E+00  9.375000E+00  0.000000E+00
  0.000000E+00  9.765625E+00  0.000000E+00
  0.000000E+00  1.015625E+01  0.000000E+00
  0.000000E+00  1.054688E+01  0.000000E+00
  0.000000E+00  1.093750E+01  0.000000E+00
  0.000000E+00  1.132812E+01  0.000000E+00
  0.000000E+00  1.171875E+01  0.000000E+00
  0.000000E+00  1.210938E+01  0.000000E+00
  0.000000E+00  1.250000E+01  0.000000E+00
  0.000000E+00  1.289062E+01  0.000000E+00
  0.000000E+00  1.328125E+01  0.000000E+00
  0.000000E+00  1.367188E+01  0.000000E+00
  0.000000E+00  1.406250E+01  0.000000E+00
  0.000000E+00  1.445312E+01  0.000000E+00
  0.000000E+00  1.484375E+01  0.000000E+00
  0.000000E+00  1.523438E+01  0.000000E+00
  0.000000E+00  1.562500E+01  0.000000E+00
  0.000000E+00  1.601562E+01  0.000000E+00
  0.000000E+00  1.640625E+01  0.000000E+00
  0.000000E+00  1.679688E+01  0.000000E+00
  0.000000E+00  1.718750E+01  0.000000E+00
  0.000000E+00  1.757812E+01  0.000000E+00
  0.000000E+00  1.796875E+01  0.000000E+00
  0.000000E+00  1.835938E+01  0.000000E+00
  0.000000E+00  1.875000E+01  0.000000E+00
  0.000000E+00  1.914062E+01  0.000000E+00
  0.000000E+00  1.953125E+01  0.000000E+00
  0.000000E+00  1.992188E+01  0.000000E+00
  0.000000E+00  2.031250E+01  0.000000E+00
  0.000000E+00  2.070312E+01  0.000000E+00
  0.000000E+00  2.109375E+01  0.000000E+00
  0.000000E+00  2.148438E+01  0.000000E+00
  0.000000E+00  2.187500E+01  0.000000E+00
  0.000000E+00  2.226562E+01  0.000000E+00
  0.000000E+00  2.265625E+01  0.000000E+00
  0.000000E+00  2.304688E+01  0.000000E+00
  0.000000E+00  2.343750E+01  0.000000E+00
  0.000000E+00  2.382812E+01  0.000000E+00
  0.000000E+00  2.421875E+01  0.000000E+00
  0.000000E+00  2.460938E+01  0.000000E+00
  3.906250E-01  0.000000E+00  0.000000E+00
  3.906250E-01  3.906250E-01  0.000000E+00
  3.906250E-01  7.812500E-01  0.000000E+00
  3.906250E-01  1.171875E+00  0.000000E+00
  3.906250E-01  1.562500E+00  0.000000E+00
  3.906250E-01  1.953125E+00  0.000000E+00
  3.906250E-01  2.343750E+00  0.000000E+00
  3.906250E-01  2.734375E+00  0.000000E+00
  3.906250E-01  3.125000E+00  0.000000E+00
  3.906250E-01  3.515625E+00  0.000000E+00
  3.906250E-01  3.906250E+00  0.000000E+00
  3.906250E-01  4.296875E+00  0.000000E+00
  3.906250E-01  4.687500E+00  0.000000E+00
  3.906250E-01  5.078125E+00  0.000000E+00
  3.906250E-01  5.468750E+00  0.000000E+00
  3.906250E-01  5.859375E+00  0.000000E+00
  3.906250E-01  6.250000E+00  0.000000E+00
  3.906250E-01  6.640625E+00  0.000000E+00
  3.906250E-01  7.031250E+00  0.000000E+00
  3.906250E-01  7.421875E+00  0.000000E+00
  3.906250E-01  7.812500E+00  0.000000E+00
  3.906250E-01  8.203125E+00  0.000000E+00
  3.906250E-01  8.593750E+00  0.000000E+00
  3.906250E-01  8.984375E+00  0.000000E+00
  3.906250E-01  9.375000E+00  0.000000E+00
  3.906250E-01  9.765625E+00  0.000000E+00
  3.906250E-01  1.015625E+01  0.000000E+00
  3.906250E-01  1.054688E+01  0.000000E+00
  3.906250E-01  1.093750E+01  0.000000E+00
  3.906250E-01  1.132812E+01  0.000000E+00
  3.906250E-01  1.171875E+01  0.000000E+00
  3.906250E-01  1.210938E+01  0.000000E+00
  3.906250E-01  1.250000E+01  0.000000E+00
  3.906250E-01  1.289062E+01  0.000000E+00
  3.906250E-01  1.328125E+01  0.000000E+00
  3.906250E-01  1.367188E+01  0.000000E+00
  3.906250E-01  1.406250E+01  0.000000E+00
  3.906250E-01  1.445312E+01  0.000000E+00
  3.906250E-01  1.484375E+01  0.000000E+00
  3.906250E-01  1.523438E+01  0.000000E+00
  3.906250E-01  1.562500E+01  0.000000E+00
  3.906250E-01  1.601562E+01  0.000000E+00
  3.906250E-01  1.640625E+01  0.000000E+00
  3.906250E-01  1.679688E+01  0.000000E+00
  3.906250E-01  1.718750E+01  0.000000E+00
  3.906250E-01  1.757812E+01  0.000000E+00
  3.906250E-01  1.796875E+01  0.000000E+00
  3.906250E-01  1.835938E+01  0.000000E+00
  3.906250E-01  1.875000E+01  0.000000E+00
  3.906250E-01  1.914062E+01  0.000000E+00
  3.906250E-01  1.953125E+01  0.000000E+00
  3.906250E-01  1.992188E+01  0.000000E+00
  3.906250E-01  2.031250E+01  0.000000E+00
  3.906250E-01  2.070312E+01  0.000000E+00
  3.906250E-01  2.109375E+01  0.000000E+00
  3.906250E-01  2.148438E+01  0.000000E+00
  3.906250E-01  2.187500E+01  0.000000E+00
  3.906250E-01  2.226562E+01  0.000000E+00
  3.906250E-01  2.265625E+01  0.000000E+00
  3.906250E-01  2.304688E+01  0.000000E+00
  3.906250E-01  2.343750E+01  0.000000E+00
  3.906250E-01  2.382812E+01  0.000000E+00
  3.906250E-01  2.421875E+01  0.000000E+00
  3.906250E-01  2.460938E+01  0.000000E+00
  7.812500E-01  0.000000E+00  0.000000E+00
  7.812500E-01  3.906250E-01  0.000000E+00
  7.812500E-01  7.812500E-01  0.000000E+00
  7.812500E-01  1.171875E+00  0.000000E+00
  7.812500E-01  1.562500E+00  0.000000E+00
  7.812500E-01  1.953125E+00  0.000000E+00
  7.812500E-01  2.343750E+00  0.000000E+00
  7.812500E-01  2.734375E+00  0.000000E+00
  7.812500E-01  3.125000E+00  0.000000E+00
  7.812500E-01  3.515625E+00  0.000000E+00
  7.812500E-01  3.906250E+00  0.000000E+00
  7.812500E-01  4.296875E+00  0.000000E+00
  7.812500E-01  4.687500E+00  0.000000E+00
  7.812500E-01  5.078125E+00  0.000000E+00
  7.812500E-01  5.468750E+00  0.000000E+00
  7.812500E-01  5.859375E+00  0.000000E+00
  7.812500E-01  6.250000E+00  0.000000E+00
  7.812500E-01  6.640625E+00  0.000000E+00
  7.812500E-01  7.031250E+00  0.000000E+00
  7.812500E-01  7.421875E+00  0.000000E+00
  7.812500E-01  7.812500E+00  0.000000E+00
  7.812500E-01  8.203125E+00  0.000000E+00
  7.812500E-01  8.593750E+00  0.000000E+00
  7.812500E-01  8.984375E+00  0.000000E+00
  7.812500E-01  9.375000E+00  0.000000E+00
  7.812500E-01  9.765625E+00  0.000000E+00
  7.812500E-01  1.015625E+01  0.000000E+00
  7.812500E-01  1.054688E+01  0.000000E+00
  7.812500E-01  1.093750E+01  0.000000E+00
  7.812500E-01  1.132812E+01  0.000000E+00
  7.812500E-01  1.171875E+01  0.000000E+00
  7.812500E-01  1.210938E+01  0.000000E+00
  7.812500E-01  1.250000E+01  0.000000E+00
  7.812500E-01  1.289062E+01  0.000000E+00
  7.812500E-01  1.328125E+01  0.000000E+00
  7.812500E-01  1.367188E+01  0.000000E+00
  7.812500E-01  1.406250E+01  0.000000E+00
  7.812500E-01  1.445312E+01  0.000000E+00
  7.812500E-01  1.484375E+01  0.000000E+00
  7.812500E-01  1.523438E+01  0.000000E+00
  7.812500E-01  1.562500E+01  0.000000E+00
  7.812500E-01  1.601562E+01  0.000000E+00
  7.812500E-01  1.640625E+01  0.000000E+00
  7.812500E-01  1.679688E+01  0.000000E+00
  7.812500E-01  1.718750E+01  0.000000E+00
  7.812500E-01  1.757812E+01  0.000000E+00
  7.812500E-01  1.796875E+01  0.000000E+00
  7.812500E-01  1.835938E+01  0.000000E+00
  7.812500E-01  1.875000E+01  0.000000E+00
  7.812500E-01  1.914062E+01  0.000000E+00
  7.812500E-01  1.953125E+01  0.000000E+00
  7.812500E-01  1.992188E+01  0.000000E+00
  7.812500E-01  2.031250E+01  0.000000E+00
  7.812500E-01  2.070312E+01  0.000000E+00
  7.812500E-01  2.109375E+01  0.000000E+00
  7.812500E-01  2.148438E+01  0.000000E+00
  7.812500E-01  2.187500E+01  0.000000E+00
  7.812500E-01  2.226562E+01  0.000000E+00
  7.812500E-01  2.265625E+01  0.000000E+00
  7.812500E-01  2.304688E+01  0.000000E+00
  7.812500E-01  2.343750E+01  0.000000E+00
  7.812500E-01  2.382812E+01  0.000000E+00
  7.812500E-01  2.421875E+01  0.000000E+00
  7.812500E-01  2.460938E+01  0.000000E+00
  1.171875E+00  0.000000E+00  0.000000E+00
  1.171875E+00  3.906250E-01  0.000000E+00
  1.171875E+00  7.812500E-01  0.000000E+00
  1.171875E+00  1.171875E+00  0.000000E+00
  1.171875E+00  1.562500E+00  0.000000E+00
  1.171875E+00  1.953125E+00  0.000000E+00
  1.171875E+00  2.343750E+00  0.000000E+00
  1.171875E+00  2.734375E+00  0.000000E+00
  1.171875E+00  3.125000E+00  0.000000E+00
  1.171875E+00  3.515625E+00  0.000000E+00
  1.171875E+00  3.906250E+00  0.000000E+00
  1.171875E+00  4.296875E+00  0.000000E+00
  1.171875E+00  4.687500E+00  0.000000E+00
  1.171875E+00  5.078125E+00  0.000000E+00
  1.171875E+00  5.468750E+00  0.000000E+00
  1.171875E+00  5.859375E+00  0.000000E+00
  1.171875E+00  6.250000E+00  0.000000E+00
  1.171875E+00  6.640625E+00  0.000000E+00
  1.171875E+00  7.031250E+00  0.000000E+00
  1.171875E+00  7.421875E+00  0.000000E+00
  1.171875E+00  7.812500E+00  0.000000E+00
  1.171875E+00  8.203125E+00  0.000000E+00
  1.171875E+00  8.593750E+00  0.000000E+00
  1.171875E+00  8.984375E+00  0.000000E+00
  1.171875E+00  9.375000E+00  0.000000E+00
  1.171875E+00  9.765625E+00  0.000000E+00
  1.171875E+00  1.015625E+01  0.000000E+00
  1.171875E+00  1.054688E+01  0.000000E+00
  1.171875E+00  1.093750E+01  0.000000E+00
  1.171875E+00  1.132812E+01  0.000000E+00
  1.171875E+00  1.171875E+01  0.000000E+00
  1.171875E+00  1.210938E+01  0.000000E+00
  1.171875E+00  1.250000E+01  0.000000E+00
  1.171875E+00  1.289062E+01  0.000000E+00
  1.171875E+00  1.328125E+01  0.000000E+00
  1.171875E+00  1.367188E+01  0.000000E+00
  1.171875E+00  1.406250E+01  0.000000E+00
  1.171875E+00  1.445312E+01  0.000000E+00
[...]
POINT_DATA   4096
SCALARS CON  float  1
LOOKUP_TABLE default
  4.694972E-01
  4.685917E-01
  4.712108E-01
  4.697263E-01
  4.714594E-01
  4.691807E-01
  4.704893E-01
  4.682067E-01
  4.697828E-01
  4.678162E-01
  4.696027E-01
  4.677305E-01
  4.695999E-01
  4.679182E-01
  4.701174E-01
  4.688101E-01
  4.712487E-01
  4.698742E-01
  4.718663E-01
  4.697319E-01
  4.708339E-01
  4.679148E-01
  4.685467E-01
  4.655907E-01
  4.666116E-01
  4.643414E-01
  4.661373E-01
  4.645175E-01
  4.666988E-01
  4.651841E-01
  4.672942E-01
  4.656902E-01
  4.678122E-01
  4.663315E-01
  4.685851E-01
  4.670905E-01
  4.690746E-01
  4.670591E-01
  4.683972E-01
  4.658084E-01
  4.668368E-01
  4.643214E-01
  4.658254E-01
  4.641076E-01
  4.665691E-01
  4.657483E-01
  4.688070E-01
  4.680905E-01
  4.706953E-01
  4.690917E-01
  4.706854E-01
  4.683396E-01
  4.697689E-01
  4.679028E-01
  4.702189E-01
  4.691948E-01
  4.718489E-01
  4.704199E-01
  4.720384E-01
  4.693676E-01
  4.700789E-01
  4.672387E-01
  4.685948E-01
  4.669318E-01
  4.713721E-01
  4.708743E-01
  4.722994E-01
  4.708858E-01
  4.712421E-01
  4.690295E-01
  4.691494E-01
  4.673063E-01
  4.681958E-01
  4.671850E-01
  4.686719E-01
  4.679001E-01
  4.693478E-01
  4.684598E-01
  4.698973E-01
  4.691560E-01
  4.707903E-01
  4.701022E-01
  4.714848E-01
  4.702097E-01
  4.707976E-01
  4.687529E-01
  4.688365E-01
  4.667081E-01
  4.671499E-01
  4.657133E-01
  4.669863E-01
  4.663002E-01
  4.680567E-01
  4.674825E-01
  4.689838E-01
  4.679006E-01
  4.688248E-01
  4.672884E-01
  4.680079E-01
  4.665250E-01
  4.674530E-01
  4.661734E-01
  4.671673E-01
  4.657818E-01
  4.665827E-01
  4.650815E-01
  4.660054E-01
  4.649392E-01
  4.665441E-01
  4.662096E-01
  4.683445E-01
  4.681360E-01
  4.699411E-01
  4.690887E-01
  4.702264E-01
  4.689976E-01
  4.702351E-01
  4.695318E-01
  4.714409E-01
  4.711729E-01
  4.729851E-01
  4.720350E-01
  4.728089E-01
  4.708755E-01
  4.711258E-01
  4.693404E-01
  4.703333E-01
  4.695535E-01
  4.679672E-01
  4.688812E-01
  4.701488E-01
  4.703750E-01
  4.705075E-01
  4.696588E-01
  4.691789E-01
  4.683172E-01
  4.682809E-01
  4.680210E-01
  4.684683E-01
  4.684515E-01
  4.689567E-01
  4.689631E-01
  4.695784E-01
  4.697847E-01
  4.705671E-01
  4.707308E-01
  4.711326E-01
  4.705753E-01
  4.700564E-01
  4.686160E-01
  4.674995E-01
  4.659183E-01
  4.651540E-01
  4.643094E-01
  4.644540E-01
  4.644524E-01
  4.651943E-01
  4.654809E-01
  4.662581E-01
  4.664511E-01
  4.671188E-01
  4.672241E-01
  4.677748E-01
  4.676378E-01
  4.677552E-01
  4.670183E-01
  4.664962E-01
  4.652696E-01
  4.645891E-01
  4.636417E-01
  4.636700E-01
  4.637363E-01
  4.648669E-01
  4.658628E-01
  4.675068E-01
  4.684488E-01
  4.694817E-01
  4.694561E-01
  4.695154E-01
  4.688908E-01
  4.689737E-01
  4.689785E-01
  4.699889E-01
  4.707341E-01
  4.718509E-01
  4.718804E-01
  4.716441E-01
  4.701826E-01
  4.689208E-01
  4.673370E-01
  4.669266E-01
  4.668349E-01
  4.694242E-01
  4.707531E-01
  4.706555E-01
  4.709874E-01
  4.696587E-01
  4.690105E-01
  4.673286E-01
  4.670622E-01
  4.663033E-01
  4.671112E-01
  4.671852E-01
  4.683686E-01
  4.683958E-01
  4.693336E-01
  4.691725E-01
  4.701128E-01
  4.700868E-01
  4.710945E-01
  4.708567E-01
  4.712834E-01
  4.701881E-01
  4.697208E-01
  4.679758E-01
  4.673090E-01
  4.658744E-01
  4.659339E-01
  4.654398E-01
  4.664123E-01
  4.665877E-01
  4.678464E-01
  4.678927E-01
  4.686908E-01
  4.681178E-01
  4.683417E-01
  4.673985E-01
  4.675094E-01
  4.666455E-01
  4.668911E-01
  4.660925E-01
  4.662954E-01
  4.654177E-01
  4.656461E-01
  4.650232E-01
  4.657619E-01
  4.657984E-01
  4.671380E-01
  4.674952E-01
  4.687435E-01
  4.686276E-01
  4.692197E-01
  4.685586E-01
  4.689776E-01
  4.686160E-01
  4.696808E-01
  4.699969E-01
  4.714046E-01
  4.714836E-01
  4.720774E-01
  4.710329E-01
  4.706177E-01
  4.690785E-01
  4.688853E-01
  4.681995E-01
  4.691475E-01
  4.659034E-01
  4.683463E-01
  4.681842E-01
  4.699519E-01
  4.686394E-01
  4.692887E-01
  4.673214E-01
  4.679574E-01
  4.665008E-01
  4.678612E-01
  4.670203E-01
  4.687100E-01
  4.679343E-01
  4.695836E-01
  4.688256E-01
  4.706032E-01
  4.699873E-01
  4.717313E-01
  4.707367E-01
  4.717135E-01
  4.696899E-01
  4.696352E-01
  4.668717E-01
  4.665859E-01
  4.641616E-01
  4.646746E-01
  4.632752E-01
  4.647744E-01
  4.641197E-01
  4.660400E-01
  4.655221E-01
  4.674029E-01
  4.667714E-01
  4.685033E-01
  4.676525E-01
  4.690263E-01
  4.676427E-01
  4.683575E-01
  4.663295E-01
  4.666043E-01
  4.645065E-01
  4.651551E-01
  4.638207E-01
  4.654505E-01
  4.650716E-01
  4.673826E-01
  4.672264E-01
  4.692387E-01
  4.683530E-01
  4.694413E-01
  4.677578E-01
  4.684726E-01
  4.669939E-01
  4.684152E-01
  4.678391E-01
  4.699310E-01
  4.694226E-01
  4.708420E-01
  4.691044E-01
  4.691897E-01
  4.665529E-01
  4.665690E-01
  4.647635E-01
  4.662147E-01
  4.675517E-01
  4.698623E-01
  4.686894E-01
  4.701624E-01
  4.679252E-01
  4.685239E-01
  4.659521E-01
  4.668839E-01
  4.651635E-01
  4.671153E-01
  4.662066E-01
  4.685373E-01
  4.675928E-01
  4.696876E-01
  4.685671E-01
  4.706863E-01
  4.697286E-01
  4.719281E-01
  4.707287E-01
  4.722580E-01
  4.700641E-01
  4.705536E-01
  4.676051E-01
  4.678673E-01
  4.652834E-01
  4.663829E-01
  4.648676E-01
  4.669922E-01
  4.662276E-01
  4.686911E-01
  4.678309E-01
  4.698520E-01
  4.683717E-01
  4.697913E-01
  4.678848E-01
  4.691152E-01
  4.672112E-01
  4.685240E-01
  4.666770E-01
  4.679887E-01
  4.661386E-01
  4.675475E-01
  4.659678E-01
  4.678008E-01
  4.666762E-01
  4.688183E-01
  4.677096E-01
  4.695348E-01
  4.678772E-01
  4.691333E-01
  4.671265E-01
  4.684191E-01
  4.668451E-01
  4.688027E-01
  4.678459E-01
  4.700915E-01
  4.689354E-01
  4.705354E-01
  4.685182E-01
  4.693713E-01
  4.670172E-01
  4.680866E-01
  4.664322E-01
  4.684231E-01
  4.644239E-01
  4.671943E-01
  4.664758E-01
  4.688960E-01
  4.673712E-01
  4.689088E-01
  4.667837E-01
  4.681854E-01
  4.663383E-01
  4.682140E-01
  4.667914E-01
  4.689028E-01
  4.675485E-01
  4.696935E-01
  4.684676E-01
  4.708540E-01
  4.698541E-01
  4.722352E-01
  4.708153E-01
  4.723264E-01
  4.697469E-01
  4.701187E-01
  4.667614E-01
  4.669546E-01
  4.640615E-01
  4.652030E-01
  4.634538E-01
  4.656338E-01
  4.646132E-01
  4.671573E-01
  4.662125E-01
  4.686787E-01
  4.676078E-01
  4.699220E-01
  4.686168E-01
  4.705348E-01
  4.686434E-01
  4.698575E-01
  4.673117E-01
  4.681230E-01
  4.655790E-01
  4.668312E-01
  4.650609E-01
  4.672058E-01
  4.661960E-01
  4.687596E-01
  4.677185E-01
  4.698213E-01
  4.680327E-01
  4.693303E-01
  4.669332E-01
  4.680228E-01
  4.658972E-01
  4.676472E-01
  4.663218E-01
  4.686819E-01
  4.674917E-01
  4.693972E-01
  4.672860E-01
  4.681367E-01
  4.652561E-01
  4.659574E-01
  4.636511E-01
  4.654694E-01
  4.665164E-01
  4.685701E-01
  4.673658E-01
  4.690446E-01
  4.672507E-01
  4.683758E-01
  4.663101E-01
  4.675686E-01
  4.659788E-01
  4.678394E-01
  4.667260E-01
  4.687879E-01
  4.676302E-01
  4.695771E-01
  4.684286E-01
  4.705833E-01
  4.697281E-01
  4.720137E-01
  4.708871E-01
  4.724191E-01
  4.702078E-01
  4.706553E-01
  4.677269E-01
  4.680689E-01
  4.656742E-01
  4.670063E-01
  4.657550E-01
  4.680782E-01
  4.674492E-01
  4.699399E-01
  4.690631E-01
  4.710221E-01
  4.695066E-01
  4.708902E-01
  4.689792E-01
  4.701796E-01
  4.682486E-01
  4.695013E-01
  4.676207E-01
  4.689083E-01
  4.670950E-01
  4.685495E-01
  4.670281E-01
  4.688453E-01
  4.676340E-01
  4.695716E-01
  4.682116E-01
  4.697568E-01
  4.678919E-01
  4.690086E-01
  4.669622E-01
  4.682270E-01
  4.666142E-01
  4.684391E-01
  4.672994E-01
  4.693262E-01
  4.680355E-01
  4.696101E-01
  4.677285E-01
  4.687826E-01
  4.666315E-01
  4.677590E-01
  4.660004E-01
  4.677082E-01
  4.637716E-01
  4.659107E-01
  4.655389E-01
  4.678553E-01
  4.672041E-01
  4.689849E-01
  4.677848E-01
  4.691770E-01
  4.677941E-01
  4.691464E-01
  4.677725E-01
  4.691385E-01
  4.678218E-01
  4.693719E-01
  4.684114E-01
  4.704242E-01
  4.698463E-01
  4.719235E-01
  4.709200E-01
  4.720832E-01
  4.698860E-01
  4.699291E-01
  4.670477E-01
  4.670662E-01
  4.648158E-01
  4.658961E-01
  4.647934E-01
  4.667874E-01
  4.661897E-01
  4.682930E-01
  4.675621E-01
  4.694761E-01
  4.686124E-01
  4.704377E-01
  4.694193E-01
  4.709019E-01
  4.693122E-01
  4.700855E-01
  4.678472E-01
  4.682571E-01
  4.660895E-01
  4.670088E-01
  4.656444E-01
  4.674218E-01
  4.667255E-01
  4.688099E-01
  4.680067E-01
  4.696359E-01
  4.681822E-01
  4.691609E-01
  4.672451E-01
  4.680853E-01
  4.663965E-01
  4.677544E-01
  4.666903E-01
  4.685363E-01
  4.676031E-01
  4.691141E-01
  4.674428E-01
  4.680423E-01
  4.656082E-01
  4.658893E-01
  4.637324E-01
  4.648276E-01
  4.661619E-01
  4.674702E-01
  4.667621E-01
  4.681864E-01
  4.673759E-01
  4.685634E-01
  4.675156E-01
  4.685770E-01
  4.675420E-01
  4.686918E-01
  4.677219E-01
  4.688621E-01
  4.678537E-01
  4.690463E-01
  4.682857E-01
  4.699096E-01
  4.695973E-01
  4.714261E-01
  4.708568E-01
  4.719258E-01
  4.702848E-01
  4.703282E-01
  4.680789E-01
  4.681523E-01
  4.665527E-01
  4.676592E-01
  4.671334E-01
  4.690440E-01
  4.688746E-01
  4.706787E-01
  4.700541E-01
  4.712332E-01
  4.699924E-01
  4.706949E-01
  4.691763E-01
  4.697862E-01
  4.682966E-01
  4.689824E-01
  4.675699E-01
  4.683395E-01
  4.670609E-01
  4.680554E-01
  4.670884E-01
  4.684133E-01
  4.676866E-01
  4.690641E-01
  4.681688E-01
  4.692120E-01
  4.679439E-01
  4.687248E-01
  4.674148E-01
  4.683988E-01
  4.674651E-01
  4.688568E-01
  4.682049E-01
  4.696412E-01
  4.687707E-01
  4.697883E-01
  4.684203E-01
  4.689937E-01
  4.673396E-01
  4.678436E-01
  4.663467E-01
  4.671990E-01
  4.636868E-01
  4.651761E-01
  4.652390E-01
  4.672567E-01
  4.674052E-01
  4.691323E-01
  4.687582E-01
  4.698850E-01
  4.689484E-01
  4.696166E-01
  4.683642E-01
  4.689003E-01
  4.677481E-01
  4.686445E-01
  4.680713E-01
  4.696234E-01
  4.695565E-01
  4.712285E-01
  4.707527E-01
  4.715237E-01
  4.698882E-01
  4.696009E-01
  4.673595E-01
  4.671184E-01
  4.655397E-01
  4.663237E-01
  4.657726E-01
  4.672759E-01
  4.669980E-01
  4.683975E-01
  4.678463E-01
  4.690191E-01
  4.683939E-01
  4.695949E-01
  4.689406E-01
  4.698977E-01
  4.687365E-01
  4.690302E-01
  4.672708E-01
  4.672652E-01
  4.656417E-01
  4.661847E-01
  4.653534E-01
  4.666909E-01
  4.664366E-01
  4.680075E-01
  4.676346E-01
  4.688241E-01
  4.679503E-01
  4.686717E-01
  4.674911E-01
  4.681468E-01
  4.671547E-01
  4.681884E-01
  4.676257E-01
  4.689608E-01
  4.684071E-01
  4.693756E-01
  4.681256E-01
  4.682453E-01
  4.662538E-01
  4.659936E-01
  4.641399E-01
  4.645333E-01
  4.664044E-01
  4.672473E-01
  4.667996E-01
  4.678935E-01
  4.675332E-01
  4.685439E-01
  4.679811E-01
  4.687496E-01
  4.679696E-01
  4.685717E-01
  4.676758E-01
  4.682230E-01
  4.673804E-01
  4.681564E-01
  4.677474E-01
  4.690911E-01
  4.691972E-01
  4.707608E-01
  4.706087E-01
  4.714233E-01
  4.702293E-01
  4.700536E-01
  4.682688E-01
  4.681041E-01
  4.669053E-01
  4.676685E-01
  4.674096E-01
  4.688341E-01
  4.688057E-01
  4.700409E-01
  4.695364E-01
  4.701896E-01
  4.691578E-01
  4.694387E-01
  4.682200E-01
  4.684735E-01
  4.673321E-01
  4.677132E-01
  4.667187E-01
  4.672657E-01
  4.664726E-01
  4.672628E-01
  4.667272E-01
  4.677274E-01
  4.672829E-01
  4.682132E-01
  4.675565E-01
  4.682145E-01
  4.673429E-01
  4.679471E-01
  4.672271E-01
  4.681500E-01
  4.678049E-01
  4.690166E-01
  4.687559E-01
  4.698009E-01
  4.691642E-01
  4.697325E-01
  4.686451E-01
  4.688848E-01
  4.676318E-01
  4.678637E-01
  4.667367E-01
  4.672058E-01
  4.643631E-01
  4.655254E-01
  4.656856E-01
  4.672687E-01
  4.675174E-01
  4.688759E-01
  4.686628E-01
  4.694279E-01
  4.686034E-01
  4.688474E-01
  4.676890E-01
  4.678638E-01
  4.669421E-01
  4.676402E-01
  4.674284E-01
  4.688436E-01
  4.691322E-01
  4.706293E-01
  4.704800E-01
  4.710770E-01
  4.697878E-01
  4.693312E-01
  4.673923E-01
  4.668778E-01
  4.654539E-01
  4.658110E-01
  4.652964E-01
  4.663181E-01
  4.660947E-01
  4.670931E-01
  4.667149E-01
  4.676121E-01
  4.672621E-01
  4.682468E-01
  4.678837E-01
  4.686167E-01
  4.677471E-01
  4.678537E-01
  4.664665E-01
  4.663750E-01
  4.652001E-01
  4.656609E-01
  4.651827E-01
  4.662544E-01
  4.661309E-01
  4.672451E-01
  4.669091E-01
  4.676820E-01
  4.670124E-01
  4.675623E-01
  4.668319E-01
  4.674846E-01
  4.669800E-01
  4.679067E-01
  4.676254E-01
  4.686204E-01
  4.681743E-01
  4.687552E-01
  4.677131E-01
  4.676611E-01
  4.661316E-01
  4.658974E-01
  4.645715E-01
  4.648984E-01
  4.675924E-01
  4.681067E-01
  4.676960E-01
  4.681435E-01
  4.676672E-01
  4.680326E-01
  4.674519E-01
  4.677054E-01
  4.670314E-01
  4.672342E-01
  4.665712E-01
  4.668699E-01
  4.664206E-01
  4.670789E-01
  4.671240E-01
  4.683266E-01
  4.688048E-01
  4.701386E-01
  4.703101E-01
  4.709007E-01
  4.700615E-01
  4.696638E-01
  4.681607E-01
  4.676167E-01
  4.664953E-01
  4.666950E-01
  4.664164E-01
  4.673056E-01
  4.674059E-01
  4.683310E-01
  4.681924E-01
  4.687219E-01
  4.681499E-01
  4.683002E-01
  4.674611E-01
  4.674832E-01
  4.666568E-01
  4.668159E-01
  4.662214E-01
  4.666679E-01
  4.663682E-01
  4.670601E-01
  4.668958E-01
  4.675647E-01
  4.672062E-01
  4.675526E-01
  4.668430E-01
  4.669404E-01
  4.661980E-01
  4.665272E-01
  4.662353E-01
  4.670995E-01
  4.672485E-01
  4.683024E-01
  4.683167E-01
  4.689551E-01
  4.684195E-01
  4.685645E-01
  4.677481E-01
  4.678837E-01
  4.672756E-01
  4.677096E-01
  4.673577E-01
  4.679286E-01
  4.660369E-01
  4.667098E-01
  4.669743E-01
  4.676227E-01
  4.677306E-01
  4.681236E-01
  4.679059E-01
  4.679341E-01
  4.673602E-01
  4.671133E-01
  4.664316E-01
  4.663152E-01
  4.660243E-01
  4.665094E-01
  4.669091E-01
  4.680036E-01
  4.687548E-01
  4.698087E-01
  4.700789E-01
  4.702762E-01
  4.694906E-01
  4.686834E-01
  4.671989E-01
  4.661719E-01
  4.649745E-01
  4.646126E-01
  4.642280E-01
  4.645948E-01
  4.647167E-01
  4.653633E-01
  4.656294E-01
  4.663830E-01
  4.667437E-01
  4.675096E-01
  4.676889E-01
  4.680196E-01
  4.675707E-01
  4.672612E-01
  4.663858E-01
  4.660227E-01
  4.654775E-01
  4.656821E-01
  4.657061E-01
  4.662649E-01
  4.663228E-01
  4.666347E-01
  4.663155E-01
  4.663030E-01
  4.658477E-01
  4.659298E-01
  4.657498E-01
  4.661818E-01
  4.663109E-01
  4.669221E-01
  4.670534E-01
  4.674857E-01
  4.672922E-01
  4.673237E-01
  4.667487E-01
  4.665199E-01
  4.658843E-01
  4.658202E-01
  4.655338E-01
  4.659085E-01
  4.695870E-01
  4.693521E-01
  4.691979E-01
  4.684340E-01
  4.679549E-01
  4.670797E-01
  4.666599E-01
  4.659547E-01
  4.657651E-01
  4.653194E-01
  4.654071E-01
  4.652602E-01
  4.656796E-01
  4.659045E-01
  4.667199E-01
  4.673095E-01
  4.683631E-01
  4.689539E-01
  4.696930E-01
  4.696564E-01
  4.695635E-01
  4.686837E-01
  4.679545E-01
  4.668105E-01
  4.662425E-01
  4.656147E-01
  4.657584E-01
  4.658506E-01
  4.665649E-01
  4.669811E-01
  4.677411E-01
  4.679462E-01
  4.683011E-01
  4.680024E-01
  4.678705E-01
  4.672184E-01
  4.669546E-01
  4.664243E-01
  4.664998E-01
  4.664278E-01
  4.669441E-01
  4.671557E-01
  4.676934E-01
  4.676290E-01
  4.676482E-01
  4.669655E-01
  4.664640E-01
  4.655487E-01
  4.652160E-01
  4.648566E-01
  4.653173E-01
  4.657476E-01
  4.667442E-01
  4.672891E-01
  4.679590E-01
  4.678754E-01
  4.678652E-01
  4.673149E-01
  4.672270E-01
  4.670042E-01
  4.675006E-01
  4.678720E-01
  4.687316E-01
  4.690962E-01
  4.680702E-01
  4.677525E-01
  4.684257E-01
  4.677128E-01
  4.680276E-01
  4.670563E-01
  4.672159E-01
  4.661611E-01
  4.662858E-01
  4.652596E-01
  4.655238E-01
  4.647930E-01
  4.655101E-01
  4.653273E-01
  4.665741E-01
  4.667762E-01
  4.681639E-01
  4.682153E-01
  4.691707E-01
  4.685702E-01
  4.687597E-01
  4.674185E-01
  4.670440E-01
  4.654418E-01
  4.651658E-01
  4.639826E-01
  4.643244E-01
  4.638052E-01
  4.647376E-01
  4.646838E-01
  4.659596E-01
  4.661356E-01
  4.674972E-01
  4.675462E-01
  4.685110E-01
  4.679178E-01
  4.681362E-01
  4.669172E-01
  4.668453E-01
  4.657696E-01
  4.661974E-01
  4.657503E-01
  4.666573E-01
  4.663364E-01
  4.669773E-01
  4.661338E-01
  4.662380E-01
  4.650818E-01
  4.652306E-01
  4.644598E-01
  4.651925E-01
  4.650069E-01
  4.661537E-01
  4.661177E-01
  4.671475E-01
  4.667970E-01
  4.674219E-01
  4.666915E-01
  4.670641E-01
  4.662788E-01
  4.668103E-01
  4.663468E-01
  4.672513E-01
  4.670748E-01
  4.713296E-01
  4.700141E-01
  4.703285E-01
  4.682835E-01
  4.681779E-01
  4.660560E-01
  4.661618E-01
  4.644389E-01
  4.650288E-01
  4.637979E-01
  4.648418E-01
  4.640066E-01
  4.653825E-01
  4.648162E-01
  4.663982E-01
  4.659679E-01
  4.675975E-01
  4.670996E-01
  4.685222E-01
  4.676754E-01
  4.686436E-01
  4.673165E-01
  4.678841E-01
  4.663365E-01
  4.669250E-01
  4.656407E-01
  4.666771E-01
  4.659258E-01
  4.674622E-01
  4.670642E-01
  4.687167E-01
  4.681497E-01
  4.693642E-01
  4.681810E-01
  4.687557E-01
  4.670898E-01
  4.674876E-01
  4.660132E-01
  4.669197E-01
  4.661157E-01
  4.676401E-01
  4.671926E-01
  4.686733E-01
  4.677611E-01
  4.684703E-01
  4.667054E-01
  4.667537E-01
  4.647522E-01
  4.650966E-01
  4.638624E-01
  4.652276E-01
  4.649664E-01
  4.669760E-01
  4.668664E-01
  4.685421E-01
  4.677858E-01
  4.687736E-01
  4.675581E-01
  4.684837E-01
  4.676066E-01
  4.691111E-01
  4.687932E-01
  4.705805E-01
  4.701157E-01
  4.692340E-01
  4.679947E-01
  4.690390E-01
  4.674061E-01
  4.681226E-01
  4.663034E-01
  4.669777E-01
  4.652126E-01
  4.659888E-01
  4.643633E-01
  4.653456E-01
  4.640249E-01
  4.654039E-01
  4.645084E-01
  4.662434E-01
  4.655481E-01
  4.672898E-01
  4.664278E-01
  4.678839E-01
  4.666754E-01
  4.677696E-01
  4.662222E-01
  4.670460E-01
  4.653502E-01
  4.661895E-01
  4.646783E-01
  4.658302E-01
  4.646912E-01
  4.662131E-01
  4.654069E-01
  4.672078E-01
  4.665977E-01
  4.684491E-01
  4.676640E-01
  4.690731E-01
  4.676351E-01
  4.683526E-01
  4.664201E-01
  4.670364E-01
  4.654492E-01
  4.667232E-01
  4.658310E-01
  4.675398E-01
  4.666357E-01
  4.678936E-01
  4.662946E-01
  4.669053E-01
  4.649661E-01
  4.656671E-01
  4.642021E-01
  4.655867E-01
  4.648009E-01
  4.666914E-01
  4.661580E-01
  4.680511E-01
  4.673236E-01
  4.688958E-01
  4.677947E-01
  4.690194E-01
  4.676771E-01
  4.688263E-01
  4.675788E-01
  4.689249E-01
  4.678540E-01
  4.717425E-01
  4.699291E-01
  4.703460E-01
  4.679915E-01
  4.681373E-01
  4.658117E-01
  4.662350E-01
  4.643376E-01
  4.652382E-01
  4.637920E-01
  4.650778E-01
  4.639388E-01
  4.654550E-01
  4.644745E-01
  4.660845E-01
  4.651439E-01
  4.667532E-01
  4.657825E-01
  4.673370E-01
  4.662859E-01
  4.677347E-01
  4.665628E-01
  4.679000E-01
  4.666582E-01
  4.679951E-01
  4.668346E-01
  4.683245E-01
  4.673559E-01
  4.690237E-01
  4.681515E-01
  4.697647E-01
  4.686383E-01
  4.697994E-01
  4.680972E-01
  4.687018E-01
  4.666365E-01
  4.672150E-01
  4.655138E-01
  4.667770E-01
  4.658997E-01
  4.678856E-01
  4.674040E-01
  4.693195E-01
  4.682988E-01
  4.693501E-01
  4.673925E-01
  4.677196E-01
  4.654774E-01
  4.660516E-01
  4.645156E-01
  4.660468E-01
  4.654501E-01
  4.676647E-01
  4.673585E-01
  4.694650E-01
  4.687638E-01
  4.703684E-01
  4.692424E-01
  4.706272E-01
  4.695174E-01
  4.710806E-01
  4.701631E-01
  4.717688E-01
  4.706316E-01
  4.688743E-01
  4.677372E-01
  4.684921E-01
  4.672891E-01
  4.679616E-01
  4.667117E-01
  4.673720E-01
  4.661065E-01
  4.667194E-01
  4.653941E-01
  4.660010E-01
  4.647929E-01
  4.656601E-01
  4.648025E-01
  4.660059E-01
  4.653691E-01
  4.666301E-01
  4.659082E-01
  4.670060E-01
  4.661104E-01
  4.670665E-01
  4.660765E-01
  4.669886E-01
  4.660068E-01
  4.669765E-01
  4.660832E-01
  4.671385E-01
  4.662976E-01
  4.673695E-01
  4.665412E-01
  4.676621E-01
  4.669247E-01
  4.681214E-01
  4.673440E-01
  4.683041E-01
  4.671047E-01
  4.675888E-01
  4.660674E-01
  4.665669E-01
  4.654523E-01
  4.666281E-01
  4.662032E-01
  4.678055E-01
  4.673743E-01
  4.685508E-01
  4.674568E-01
  4.679952E-01
  4.665104E-01
  4.670036E-01