# vtk DataFile Version 2.0
title
ASCII
DATASET STRUCTURED_GRID
DIMENSIONS   64   64    1
POINTS   4096  float
  0.000000E+00  0.000000E+00  0.000000E+00
  0.000000E+00  3.906250E-01  0.000000E+00
  0.000000E+00  7.812500E-01  0.000000E+00
  0.000000E+00  1.171875E+00  0.000000E+00
  0.000000E+00  1.562500E+00  0.000000E+00
  0.000000E+00  1.953125E+00  0.000000E+00
  0.000000E+00  2.343750E+00  0.000000E+00
  0.000000E+00  2.734375E+00  0.000000E+00
  0.000000E+00  3.125000E+00  0.000000E+00
  0.000000E+00  3.515625E+00  0.000000E+00
  0.000000E+00  3.906250E+00  0.000000E+00
  0.000000E+00  4.296875E+00  0.000000E+00
  0.000000E+00  4.687500E+00  0.000000E+00
  0.000000E+00  5.078125E+00  0.000000E+00
  0.000000E+00  5.468750E+00  0.000000E+00
  0.000000E+00  5.859375E+00  0.000000E+00
  0.000000E+00  6.250000E+00  0.000000E+00
  0.000000E+00  6.640625E+00  0.000000E+00
  0.000000E+00  7.031250E+00  0.000000E+00
  0.000000E+00  7.421875E+00  0.000000E+00
  0.000000E+00  7.812500E+00  0.000000E+00
  0.000000E+00  8.203125E+00  0.000000E+00
  0.000000E+00  8.593750E+00  0.000000E+00
  0.000000E+00  8.984375E+00  0.000000E+00
  0.000000E+00  9.375000E+00  0.000000E+00
  0.000000E+00  9.765625E+00  0.000000E+00
  0.000000E+00  1.015625E+01  0.000000E+00
  0.000000E+00  1.054688E+01  0.000000E+00
  0.000000E+00  1.093750E+01  0.000000E+00
  0.000000E+00  1.132812E+01  0.000000E+00
  0.000000E+00  1.171875E+01  0.000000E+00
  0.000000E+00  1.210938E+01  0.000000E+00
  0.000000E+00  1.250000E+01  0.000000E+00
  0.000000E+00  1.289062E+01  0.000000E+00
  0.000000E+00  1.328125E+01  0.000000E+00
  0.000000E+00  1.367188E+01  0.000000E+00
  0.000000E+00  1.406250E+01  0.000000E+00
  0.000000E+00  1.445312E+01  0.000000E+00
  0.000000E+00  1.484375E+01  0.000000E+00
  0.000000E+00  1.523438E+01  0.000000E+00
  0.000000E+00  1.562500E+01  0.000000E+00
  0.000000E+00  1.601562E+01  0.000000E+00
  0.000000E+00  1.640625E+01  0.000000E+00
  0.000000E+00  1.679688E+01  0.000000E+00
  0.000000E+00  1.718750E+01  0.000000E+00
  0.000000E+00  1.757812E+01  0.000000E+00
  0.000000E+00  1.796875E+01  0.000000E+00
  0.000000E+00  1.835938E+01  0.000000E+00
  0.000000E+00  1.875000E+01  0.000000E+00
  0.000000E+00  1.914062E+01  0.000000E+00
  0.000000E+00  1.953125E+01  0.000000E+00
  0.000000E+00  1.992188E+01  0.000000E+00
  0.000000E+00  2.031250E+01  0.000000E+00
  0.000000E+00  2.070312E+01  0.000000E+00
  0.000000E+00  2.109375E+01  0.000000E+00
  0.000000E+00  2.148438E+01  0.000000E+00
  0.000000E+00  2.187500E+01  0.000000E+00
  0.000000E+00  2.226562E+01  0.000000E+00
  0.000000E+00  2.265625E+01  0.000000E+00
  0.000000E+00  2.304688E+01  0.000000E+00
  0.000000E+00  2.343750E+01  0.000000E+00
  0.000000E+00  2.382812E+01  0.000000E+00
  0.000000E+00  2.421875E+01  0.000000E+00
  0.000000E+00  2.460938E+01  0.000000E+00
  3.906250E-01  0.000000E+00  0.000000E+00
  3.906250E-01  3.906250E-01  0.000000E+00
  3.906250E-01  7.812500E-01  0.000000E+00
  3.906250E-01  1.171875E+00  0.000000E+00
  3.906250E-01  1.562500E+00  0.000000E+00
  3.906250E-01  1.953125E+00  0.000000E+00
  3.906250E-01  2.343750E+00  0.000000E+00
  3.906250E-01  2.734375E+00  0.000000E+00
  3.906250E-01  3.125000E+00  0.000000E+00
  3.906250E-01  3.515625E+00  0.000000E+00
  3.906250E-01  3.906250E+00  0.000000E+00
  3.906250E-01  4.296875E+00  0.000000E+00
  3.906250E-01  4.687500E+00  0.000000E+00
  3.906250E-01  5.078125E+00  0.000000E+00
  3.906250E-01  5.468750E+00  0.000000E+00
  3.906250E-01  5.859375E+00  0.000000E+00
  3.906250E-01  6.250000E+00  0.000000E+00
  3.906250E-01  6.640625E+00  0.000000E+00
  3.906250E-01  7.031250E+00  0.000000E+00
  3.906250E-01  7.421875E+00  0.000000E+00
  3.906250E-01  7.812500E+00  0.000000E+00
  3.906250E-01  8.203125E+00  0.000000E+00
  3.906250E-01  8.593750E+00  0.000000E+00
  3.906250E-01  8.984375E+00  0.000000E+00
  3.906250E-01  9.375000E+00  0.000000E+00
  3.906250E-01  9.765625E+00  0.000000E+00
  3.906250E-01  1.015625E+01  0.000000E+00
  3.906250E-01  1.054688E+01  0.000000E+00
  3.906250E-01  1.093750E+01  0.000000E+00
  3.906250E-01  1.132812E+01  0.000000E+00
  3.906250E-01  1.171875E+01  0.000000E+00
  3.906250E-01  1.210938E+01  0.000000E+00
  3.906250E-01  1.250000E+01  0.000000E+00
  3.906250E-01  1.289062E+01  0.000000E+00
  3.906250E-01  1.328125E+01  0.000000E+00
  3.906250E-01  1.367188E+01  0.000000E+00
  3.906250E-01  1.406250E+01  0.000000E+00
  3.906250E-01  1.445312E+01  0.000000E+00
  3.906250E-01  1.484375E+01  0.000000E+00
  3.906250E-01  1.523438E+01  0.000000E+00
  3.906250E-01  1.562500E+01  0.000000E+00
  3.906250E-01  1.601562E+01  0.000000E+00
  3.906250E-01  1.640625E+01  0.000000E+00
  3.906250E-01  1.679688E+01  0.000000E+00
  3.906250E-01  1.718750E+01  0.000000E+00
  3.906250E-01  1.757812E+01  0.000000E+00
  3.906250E-01  1.796875E+01  0.000000E+00
  3.906250E-01  1.835938E+01  0.000000E+00
  3.906250E-01  1.875000E+01  0.000000E+00
  3.906250E-01  1.914062E+01  0.000000E+00
  3.906250E-01  1.953125E+01  0.000000E+00
  3.906250E-01  1.992188E+01  0.000000E+00
  3.906250E-01  2.031250E+01  0.000000E+00
  3.906250E-01  2.070312E+01  0.000000E+00
  3.906250E-01  2.109375E+01  0.000000E+00
  3.906250E-01  2.148438E+01  0.000000E+00
  3.906250E-01  2.187500E+01  0.000000E+00
  3.906250E-01  2.226562E+01  0.000000E+00
  3.906250E-01  2.265625E+01  0.000000E+00
  3.906250E-01  2.304688E+01  0.000000E+00
  3.906250E-01  2.343750E+01  0.000000E+00
  3.906250E-01  2.382812E+01  0.000000E+00
  3.906250E-01  2.421875E+01  0.000000E+00
  3.906250E-01  2.460938E+01  0.000000E+00
  7.812500E-01  0.000000E+00  0.000000E+00
  7.812500E-01  3.906250E-01  0.000000E+00
  7.812500E-01  7.812500E-01  0.000000E+00
  7.812500E-01  1.171875E+00  0.000000E+00
  7.812500E-01  1.562500E+00  0.000000E+00
  7.812500E-01  1.953125E+00  0.000000E+00
  7.812500E-01  2.343750E+00  0.000000E+00
  7.812500E-01  2.734375E+00  0.000000E+00
  7.812500E-01  3.125000E+00  0.000000E+00
  7.812500E-01  3.515625E+00  0.000000E+00
  7.812500E-01  3.906250E+00  0.000000E+00
  7.812500E-01  4.296875E+00  0.000000E+00
  7.812500E-01  4.687500E+00  0.000000E+00
  7.812500E-01  5.078125E+00  0.000000E+00
  7.812500E-01  5.468750E+00  0.000000E+00
  7.812500E-01  5.859375E+00  0.000000E+00
  7.812500E-01  6.250000E+00  0.000000E+00
  7.812500E-01  6.640625E+00  0.000000E+00
  7.812500E-01  7.031250E+00  0.000000E+00
  7.812500E-01  7.421875E+00  0.000000E+00
  7.812500E-01  7.812500E+00  0.000000E+00
  7.812500E-01  8.203125E+00  0.000000E+00
  7.812500E-01  8.593750E+00  0.000000E+00
  7.812500E-01  8.984375E+00  0.000000E+00
  7.812500E-01  9.375000E+00  0.000000E+00
  7.812500E-01  9.765625E+00  0.000000E+00
  7.812500E-01  1.015625E+01  0.000000E+00
  7.812500E-01  1.054688E+01  0.000000E+00
  7.812500E-01  1.093750E+01  0.000000E+00
  7.812500E-01  1.132812E+01  0.000000E+00
  7.812500E-01  1.171875E+01  0.000000E+00
  7.812500E-01  1.210938E+01  0.000000E+00
  7.812500E-01  1.250000E+01  0.000000E+00
  7.812500E-01  1.289062E+01  0.000000E+00
  7.812500E-01  1.328125E+01  0.000000E+00
  7.812500E-01  1.367188E+01  0.000000E+00
  7.812500E-01  1.406250E+01  0.000000E+00
  7.812500E-01  1.445312E+01  0.000000E+00
  7.812500E-01  1.484375E+01  0.000000E+00
  7.812500E-01  1.523438E+01  0.000000E+00
  7.812500E-01  1.562500E+01  0.000000E+00
  7.812500E-01  1.601562E+01  0.000000E+00
  7.812500E-01  1.640625E+01  0.000000E+00
  7.812500E-01  1.679688E+01  0.000000E+00
  7.812500E-01  1.718750E+01  0.000000E+00
  7.812500E-01  1.757812E+01  0.000000E+00
  7.812500E-01  1.796875E+01  0.000000E+00
  7.812500E-01  1.835938E+01  0.000000E+00
  7.812500E-01  1.875000E+01  0.000000E+00
  7.812500E-01  1.914062E+01  0.000000E+00
  7.812500E-01  1.953125E+01  0.000000E+00
  7.812500E-01  1.992188E+01  0.000000E+00
  7.812500E-01  2.031250E+01  0.000000E+00
  7.812500E-01  2.070312E+01  0.000000E+00
  7.812500E-01  2.109375E+01  0.000000E+00
  7.812500E-01  2.148438E+01  0.000000E+00
  7.812500E-01  2.187500E+01  0.000000E+00
  7.812500E-01  2.226562E+01  0.000000E+00
  7.812500E-01  2.265625E+01  0.000000E+00
  7.812500E-01  2.304688E+01  0.000000E+00
  7.812500E-01  2.343750E+01  0.000000E+00
  7.812500E-01  2.382812E+01  0.000000E+00
  7.812500E-01  2.421875E+01  0.000000E+00
  7.812500E-01  2.460938E+01  0.000000E+00
  1.171875E+00  0.000000E+00  0.000000E+00
  1.171875E+00  3.906250E-01  0.000000E+00
  1.171875E+00  7.812500E-01  0.000000E+00
  1.171875E+00  1.171875E+00  0.000000E+00
  1.171875E+00  1.562500E+00  0.000000E+00
  1.171875E+00  1.953125E+00  0.000000E+00
  1.171875E+00  2.343750E+00  0.000000E+00
  1.171875E+00  2.734375E+00  0.000000E+00
  1.171875E+00  3.125000E+00  0.000000E+00
  1.171875E+00  3.515625E+00  0.000000E+00
  1.171875E+00  3.906250E+00  0.000000E+00
  1.171875E+00  4.296875E+00  0.000000E+00
  1.171875E+00  4.687500E+00  0.000000E+00
  1.171875E+00  5.078125E+00  0.000000E+00
  1.171875E+00  5.468750E+00  0.000000E+00
  1.171875E+00  5.859375E+00  0.000000E+00
  1.171875E+00  6.250000E+00  0.000000E+00
  1.171875E+00  6.640625E+00  0.000000E+00
  1.171875E+00  7.031250E+00  0.000000E+00
  1.171875E+00  7.421875E+00  0.000000E+00
  1.171875E+00  7.812500E+00  0.000000E+00
  1.171875E+00  8.203125E+00  0.000000E+00
  1.171875E+00  8.593750E+00  0.000000E+00
  1.171875E+00  8.984375E+00  0.000000E+00
  1.171875E+00  9.375000E+00  0.000000E+00
  1.171875E+00  9.765625E+00  0.000000E+00
  1.171875E+00  1.015625E+01  0.000000E+00
  1.171875E+00  1.054688E+01  0.000000E+00
  1.171875E+00  1.093750E+01  0.000000E+00
  1.171875E+00  1.132812E+01  0.000000E+00
  1.171875E+00  1.171875E+01  0.000000E+00
  1.171875E+00  1.210938E+01  0.000000E+00
  1.171875E+00  1.250000E+01  0.000000E+00
  1.171875E+00  1.289062E+01  0.000000E+00
  1.171875E+00  1.328125E+01  0.000000E+00
  1.171875E+00  1.367188E+01  0.000000E+00
  1.171875E+00  1.406250E+01  0.000000E+00
  1.171875E+00  1.445312E+01  0.000000E+00
[...]
POINT_DATA   4096
SCALARS CON  float  1
LOOKUP_TABLE default
  4.695117E-01
  4.688117E-01
  4.716995E-01
  4.701089E-01
  4.717729E-01
  4.692173E-01
  4.705316E-01
  4.682150E-01
  4.700302E-01
  4.680943E-01
  4.699774E-01
  4.678859E-01
  4.696586E-01
  4.677390E-01
  4.699985E-01
  4.686810E-01
  4.713450E-01
  4.699854E-01
  4.721002E-01
  4.698241E-01
  4.709145E-01
  4.677787E-01
  4.683826E-01
  4.652431E-01
  4.663243E-01
  4.640213E-01
  4.660662E-01
  4.645708E-01
  4.670420E-01
  4.655365E-01
  4.677137E-01
  4.659058E-01
  4.680026E-01
  4.663765E-01
  4.687438E-01
  4.672074E-01
  4.692962E-01
  4.671276E-01
  4.684359E-01
  4.656161E-01
  4.666171E-01
  4.639181E-01
  4.654402E-01
  4.635769E-01
  4.661315E-01
  4.653262E-01
  4.687133E-01
  4.682219E-01
  4.711971E-01
  4.696065E-01
  4.711585E-01
  4.684103E-01
  4.696175E-01
  4.675359E-01
  4.701146E-01
  4.694095E-01
  4.726196E-01
  4.713942E-01
  4.730919E-01
  4.700175E-01
  4.703573E-01
  4.670148E-01
  4.682699E-01
  4.665895E-01
  4.714199E-01
  4.711494E-01
  4.728785E-01
  4.714040E-01
  4.716868E-01
  4.691321E-01
  4.691340E-01
  4.671538E-01
  4.682525E-01
  4.673613E-01
  4.691002E-01
  4.682651E-01
  4.696749E-01
  4.684963E-01
  4.698491E-01
  4.689551E-01
  4.707274E-01
  4.700591E-01
  4.716142E-01
  4.702593E-01
  4.708654E-01
  4.686278E-01
  4.687106E-01
  4.664532E-01
  4.669919E-01
  4.655147E-01
  4.669524E-01
  4.662837E-01
  4.682552E-01
  4.677170E-01
  4.693844E-01
  4.682078E-01
  4.691227E-01
  4.673442E-01
  4.680029E-01
  4.663458E-01
  4.673569E-01
  4.660375E-01
  4.671601E-01
  4.656634E-01
  4.664410E-01
  4.646747E-01
  4.655023E-01
  4.642306E-01
  4.659351E-01
  4.656801E-01
  4.681959E-01
  4.682281E-01
  4.703609E-01
  4.694708E-01
  4.705429E-01
  4.689691E-01
  4.701054E-01
  4.693424E-01
  4.716165E-01
  4.716751E-01
  4.739304E-01
  4.730173E-01
  4.737155E-01
  4.713170E-01
  4.712217E-01
  4.690221E-01
  4.699884E-01
  4.692358E-01
  4.678137E-01
  4.691834E-01
  4.708133E-01
  4.710575E-01
  4.709945E-01
  4.697637E-01
  4.690250E-01
  4.680440E-01
  4.681579E-01
  4.680978E-01
  4.687692E-01
  4.687815E-01
  4.692277E-01
  4.690366E-01
  4.695279E-01
  4.696308E-01
  4.704577E-01
  4.706601E-01
  4.711632E-01
  4.706172E-01
  4.701267E-01
  4.686213E-01
  4.674801E-01
  4.658157E-01
  4.650500E-01
  4.641875E-01
  4.644214E-01
  4.644787E-01
  4.653259E-01
  4.656040E-01
  4.663618E-01
  4.664313E-01
  4.670413E-01
  4.670820E-01
  4.676903E-01
  4.675859E-01
  4.677799E-01
  4.670065E-01
  4.664420E-01
  4.650649E-01
  4.642709E-01
  4.631556E-01
  4.631054E-01
  4.630946E-01
  4.643016E-01
  4.654307E-01
  4.673667E-01
  4.685717E-01
  4.698493E-01
  4.698367E-01
  4.697722E-01
  4.688502E-01
  4.687391E-01
  4.686913E-01
  4.699713E-01
  4.711122E-01
  4.726806E-01
  4.728922E-01
  4.725655E-01
  4.706505E-01
  4.688554E-01
  4.667695E-01
  4.661968E-01
  4.662320E-01
  4.692810E-01
  4.710810E-01
  4.712141E-01
  4.716403E-01
  4.700153E-01
  4.690195E-01
  4.668978E-01
  4.665104E-01
  4.657888E-01
  4.669550E-01
  4.673083E-01
  4.687540E-01
  4.687112E-01
  4.695176E-01
  4.690568E-01
  4.698957E-01
  4.698037E-01
  4.709904E-01
  4.708580E-01
  4.714592E-01
  4.703336E-01
  4.698800E-01
  4.680071E-01
  4.673394E-01
  4.658050E-01
  4.658860E-01
  4.652972E-01
  4.663065E-01
  4.664401E-01
  4.678131E-01
  4.678651E-01
  4.687404E-01
  4.680502E-01
  4.682102E-01
  4.670871E-01
  4.672067E-01
  4.663409E-01
  4.667733E-01
  4.660375E-01
  4.663326E-01
  4.653164E-01
  4.654454E-01
  4.646110E-01
  4.653383E-01
  4.653721E-01
  4.669374E-01
  4.674570E-01
  4.689516E-01
  4.688541E-01
  4.694296E-01
  4.685146E-01
  4.687743E-01
  4.682443E-01
  4.694514E-01
  4.699777E-01
  4.717812E-01
  4.720477E-01
  4.727290E-01
  4.714146E-01
  4.706839E-01
  4.686929E-01
  4.682874E-01
  4.674935E-01
  4.686917E-01
  4.656507E-01
  4.686764E-01
  4.686870E-01
  4.705907E-01
  4.688648E-01
  4.691998E-01
  4.667128E-01
  4.673042E-01
  4.658166E-01
  4.675869E-01
  4.669256E-01
  4.689303E-01
  4.680341E-01
  4.696810E-01
  4.686327E-01
  4.704462E-01
  4.697304E-01
  4.717308E-01
  4.707727E-01
  4.720058E-01
  4.699012E-01
  4.699315E-01
  4.669329E-01
  4.666437E-01
  4.639779E-01
  4.645506E-01
  4.630090E-01
  4.646605E-01
  4.639113E-01
  4.659707E-01
  4.653004E-01
  4.672604E-01
  4.664603E-01
  4.683201E-01
  4.673961E-01
  4.689911E-01
  4.675745E-01
  4.684735E-01
  4.663135E-01
  4.666573E-01
  4.643478E-01
  4.650542E-01
  4.635671E-01
  4.653587E-01
  4.649392E-01
  4.674967E-01
  4.673292E-01
  4.695425E-01
  4.685189E-01
  4.696190E-01
  4.676019E-01
  4.682126E-01
  4.664428E-01
  4.679816E-01
  4.674456E-01
  4.699531E-01
  4.695995E-01
  4.712877E-01
  4.693396E-01
  4.692616E-01
  4.661110E-01
  4.659409E-01
  4.639147E-01
  4.656828E-01
  4.674567E-01
  4.701744E-01
  4.690389E-01
  4.706348E-01
  4.680146E-01
  4.683577E-01
  4.652630E-01
  4.661349E-01
  4.643464E-01
  4.667320E-01
  4.660436E-01
  4.687619E-01
  4.677135E-01
  4.697973E-01
  4.683292E-01
  4.704716E-01
  4.694320E-01
  4.719760E-01
  4.708787E-01
  4.727034E-01
  4.703758E-01
  4.708792E-01
  4.676072E-01
  4.678400E-01
  4.649981E-01
  4.661666E-01
  4.644772E-01
  4.667446E-01
  4.658949E-01
  4.686028E-01
  4.677234E-01
  4.699609E-01
  4.683310E-01
  4.698020E-01
  4.676538E-01
  4.689877E-01
  4.670136E-01
  4.686107E-01
  4.667647E-01
  4.682788E-01
  4.662573E-01
  4.677260E-01
  4.659526E-01
  4.679445E-01
  4.667666E-01
  4.691494E-01
  4.679537E-01
  4.698795E-01
  4.679449E-01
  4.691328E-01
  4.667637E-01
  4.680254E-01
  4.662503E-01
  4.684132E-01
  4.674740E-01
  4.700302E-01
  4.688381E-01
  4.705709E-01
  4.683093E-01
  4.691525E-01
  4.665286E-01
  4.676784E-01
  4.659294E-01
  4.682189E-01
  4.643163E-01
  4.674215E-01
  4.667846E-01
  4.692811E-01
  4.674666E-01
  4.687737E-01
  4.662743E-01
  4.676293E-01
  4.657656E-01
  4.679417E-01
  4.666688E-01
  4.690043E-01
  4.675555E-01
  4.696731E-01
  4.682438E-01
  4.706928E-01
  4.697169E-01
  4.723889E-01
  4.710908E-01
  4.728024E-01
  4.701049E-01
  4.703947E-01
  4.667116E-01
  4.667641E-01
  4.636415E-01
  4.648383E-01
  4.630706E-01
  4.654559E-01
  4.644659E-01
  4.671706E-01
  4.661633E-01
  4.687074E-01
  4.675473E-01
  4.699796E-01
  4.686636E-01
  4.707638E-01
  4.688633E-01
  4.701843E-01
  4.675075E-01
  4.683194E-01
  4.656130E-01
  4.669301E-01
  4.651253E-01
  4.674580E-01
  4.664661E-01
  4.691729E-01
  4.680302E-01
  4.701324E-01
  4.681200E-01
  4.693375E-01
  4.666807E-01
  4.676971E-01
  4.653693E-01
  4.671616E-01
  4.657950E-01
  4.683619E-01
  4.672391E-01
  4.693563E-01
  4.672056E-01
  4.680919E-01
  4.650064E-01
  4.656743E-01
  4.632421E-01
  4.652373E-01
  4.665398E-01
  4.686563E-01
  4.675358E-01
  4.692447E-01
  4.673833E-01
  4.683320E-01
  4.660688E-01
  4.672064E-01
  4.656588E-01
  4.676963E-01
  4.668041E-01
  4.689906E-01
  4.678009E-01
  4.695785E-01
  4.682542E-01
  4.703457E-01
  4.696133E-01
  4.721444E-01
  4.712657E-01
  4.729002E-01
  4.705997E-01
  4.707993E-01
  4.675922E-01
  4.677254E-01
  4.652582E-01
  4.666261E-01
  4.654804E-01
  4.679226E-01
  4.674214E-01
  4.700326E-01
  4.692680E-01
  4.712893E-01
  4.697749E-01
  4.710953E-01
  4.691159E-01
  4.702859E-01
  4.683978E-01
  4.697247E-01
  4.679017E-01
  4.691738E-01
  4.672926E-01
  4.686686E-01
  4.671293E-01
  4.689953E-01
  4.678774E-01
  4.698789E-01
  4.685171E-01
  4.699727E-01
  4.679692E-01
  4.689286E-01
  4.667584E-01
  4.679459E-01
  4.663223E-01
  4.681772E-01
  4.670903E-01
  4.691468E-01
  4.678601E-01
  4.694146E-01
  4.675330E-01
  4.686165E-01
  4.665280E-01
  4.677085E-01
  4.659828E-01
  4.677000E-01
  4.636444E-01
  4.658001E-01
  4.656422E-01
  4.679823E-01
  4.674372E-01
  4.690890E-01
  4.678941E-01
  4.691686E-01
  4.678978E-01
  4.692509E-01
  4.680229E-01
  4.692981E-01
  4.679564E-01
  4.692741E-01
  4.682794E-01
  4.702123E-01
  4.698460E-01
  4.720508E-01
  4.713080E-01
  4.724480E-01
  4.702225E-01
  4.699493E-01
  4.668808E-01
  4.666335E-01
  4.644318E-01
  4.655591E-01
  4.647570E-01
  4.668877E-01
  4.664994E-01
  4.685350E-01
  4.678095E-01
  4.695529E-01
  4.687321E-01
  4.705273E-01
  4.697050E-01
  4.712289E-01
  4.697756E-01
  4.704205E-01
  4.681200E-01
  4.682720E-01
  4.660451E-01
  4.668362E-01
  4.655997E-01
  4.674013E-01
  4.668873E-01
  4.689500E-01
  4.682320E-01
  4.697524E-01
  4.683397E-01
  4.691991E-01
  4.673167E-01
  4.680139E-01
  4.663301E-01
  4.675445E-01
  4.665389E-01
  4.683450E-01
  4.675874E-01
  4.691380E-01
  4.676431E-01
  4.681946E-01
  4.657903E-01
  4.658778E-01
  4.636738E-01
  4.646101E-01
  4.660047E-01
  4.671782E-01
  4.666737E-01
  4.681589E-01
  4.676117E-01
  4.687650E-01
  4.678153E-01
  4.687300E-01
  4.678015E-01
  4.688970E-01
  4.680988E-01
  4.691256E-01
  4.681055E-01
  4.689854E-01
  4.681435E-01
  4.695942E-01
  4.694955E-01
  4.714368E-01
  4.711824E-01
  4.722093E-01
  4.705556E-01
  4.702452E-01
  4.678662E-01
  4.677249E-01
  4.663049E-01
  4.675058E-01
  4.673219E-01
  4.692981E-01
  4.693117E-01
  4.709966E-01
  4.704210E-01
  4.714164E-01
  4.702101E-01
  4.707453E-01
  4.693057E-01
  4.698178E-01
  4.684752E-01
  4.690840E-01
  4.677622E-01
  4.683412E-01
  4.670503E-01
  4.678338E-01
  4.669385E-01
  4.681965E-01
  4.676681E-01
  4.690307E-01
  4.683065E-01
  4.692656E-01
  4.681005E-01
  4.687533E-01
  4.675303E-01
  4.683963E-01
  4.675825E-01
  4.688994E-01
  4.683966E-01
  4.697519E-01
  4.689930E-01
  4.698934E-01
  4.686356E-01
  4.691223E-01
  4.675936E-01
  4.679585E-01
  4.664661E-01
  4.670593E-01
  4.632994E-01
  4.647556E-01
  4.650593E-01
  4.672003E-01
  4.676171E-01
  4.693839E-01
  4.691453E-01
  4.701979E-01
  4.693346E-01
  4.699011E-01
  4.686842E-01
  4.690399E-01
  4.678209E-01
  4.684716E-01
  4.678674E-01
  4.693276E-01
  4.694481E-01
  4.712088E-01
  4.709659E-01
  4.717016E-01
  4.700596E-01
  4.695033E-01
  4.671575E-01
  4.667554E-01
  4.653531E-01
  4.663020E-01
  4.661351E-01
  4.677799E-01
  4.676319E-01
  4.688057E-01
  4.680800E-01
  4.689259E-01
  4.682603E-01
  4.694152E-01
  4.689915E-01
  4.700248E-01
  4.690173E-01
  4.691673E-01
  4.673230E-01
  4.670378E-01
  4.653516E-01
  4.657651E-01
  4.650621E-01
  4.664145E-01
  4.663467E-01
  4.679218E-01
  4.677025E-01
  4.688755E-01
  4.681450E-01
  4.688232E-01
  4.677222E-01
  4.682479E-01
  4.672714E-01
  4.681813E-01
  4.677254E-01
  4.690789E-01
  4.687584E-01
  4.697893E-01
  4.686992E-01
  4.687037E-01
  4.666440E-01
  4.660659E-01
  4.640389E-01
  4.641493E-01
  4.660458E-01
  4.668153E-01
  4.664846E-01
  4.677481E-01
  4.676244E-01
  4.687540E-01
  4.682608E-01
  4.689782E-01
  4.681855E-01
  4.687488E-01
  4.678752E-01
  4.683565E-01
  4.674242E-01
  4.680031E-01
  4.674640E-01
  4.687306E-01
  4.689547E-01
  4.706893E-01
  4.707560E-01
  4.716268E-01
  4.703826E-01
  4.699994E-01
  4.680676E-01
  4.678291E-01
  4.667748E-01
  4.677509E-01
  4.677652E-01
  4.693160E-01
  4.693179E-01
  4.704060E-01
  4.697411E-01
  4.701864E-01
  4.690440E-01
  4.692269E-01
  4.680216E-01
  4.682851E-01
  4.672255E-01
  4.676256E-01
  4.666588E-01
  4.671332E-01
  4.662899E-01
  4.669921E-01
  4.664678E-01
  4.674879E-01
  4.671562E-01
  4.681610E-01
  4.676140E-01
  4.682993E-01
  4.674662E-01
  4.680224E-01
  4.672852E-01
  4.681518E-01
  4.678453E-01
  4.691044E-01
  4.689830E-01
  4.701151E-01
  4.695734E-01
  4.701294E-01
  4.690381E-01
  4.692013E-01
  4.679011E-01
  4.679954E-01
  4.667285E-01
  4.669789E-01
  4.639553E-01
  4.651904E-01
  4.654271E-01
  4.671847E-01
  4.675390E-01
  4.690317E-01
  4.688382E-01
  4.696393E-01
  4.687505E-01
  4.689697E-01
  4.677012E-01
  4.678111E-01
  4.667508E-01
  4.673906E-01
  4.671071E-01
  4.685935E-01
  4.689689E-01
  4.706632E-01
  4.706317E-01
  4.713316E-01
  4.699656E-01
  4.693975E-01
  4.672539E-01
  4.666667E-01
  4.652464E-01
  4.658155E-01
  4.655139E-01
  4.667532E-01
  4.665191E-01
  4.673844E-01
  4.666971E-01
  4.673685E-01
  4.668610E-01
  4.679212E-01
  4.676830E-01
  4.686126E-01
  4.677884E-01
  4.678850E-01
  4.663414E-01
  4.661526E-01
  4.648789E-01
  4.653932E-01
  4.649705E-01
  4.661828E-01
  4.661172E-01
  4.673210E-01
  4.669842E-01
  4.678051E-01
  4.671043E-01
  4.676635E-01
  4.668488E-01
  4.674649E-01
  4.668761E-01
  4.678389E-01
  4.676073E-01
  4.687820E-01
  4.684703E-01
  4.692066E-01
  4.681614E-01
  4.680586E-01
  4.663231E-01
  4.659057E-01
  4.643482E-01
  4.645709E-01
  4.674441E-01
  4.679776E-01
  4.674975E-01
  4.680725E-01
  4.676143E-01
  4.681163E-01
  4.674852E-01
  4.677820E-01
  4.669999E-01
  4.672444E-01
  4.664976E-01
  4.668395E-01
  4.662647E-01
  4.669137E-01
  4.668344E-01
  4.681274E-01
  4.686606E-01
  4.702594E-01
  4.705519E-01
  4.713063E-01
  4.703499E-01
  4.698512E-01
  4.680704E-01
  4.674454E-01
  4.662249E-01
  4.665759E-01
  4.663597E-01
  4.674200E-01
  4.674763E-01
  4.684187E-01
  4.681195E-01
  4.686278E-01
  4.679240E-01
  4.681128E-01
  4.672028E-01
  4.673153E-01
  4.664596E-01
  4.667336E-01
  4.661077E-01
  4.666425E-01
  4.662807E-01
  4.670535E-01
  4.668542E-01
  4.676482E-01
  4.672810E-01
  4.677335E-01
  4.669493E-01
  4.670634E-01
  4.661670E-01
  4.664731E-01
  4.660458E-01
  4.669679E-01
  4.671062E-01
  4.683401E-01
  4.684037E-01
  4.691799E-01
  4.685614E-01
  4.686903E-01
  4.677002E-01
  4.678367E-01
  4.671525E-01
  4.676864E-01
  4.672871E-01
  4.679056E-01
  4.660301E-01
  4.668234E-01
  4.669983E-01
  4.676928E-01
  4.676979E-01
  4.681770E-01
  4.679073E-01
  4.680379E-01
  4.673750E-01
  4.671566E-01
  4.663138E-01
  4.661945E-01
  4.657719E-01
  4.663376E-01
  4.667168E-01
  4.679998E-01
  4.688105E-01
  4.700905E-01
  4.704043E-01
  4.707450E-01
  4.698477E-01
  4.689792E-01
  4.671938E-01
  4.660183E-01
  4.645925E-01
  4.642928E-01
  4.639229E-01
  4.644949E-01
  4.646017E-01
  4.652898E-01
  4.653700E-01
  4.661160E-01
  4.664049E-01
  4.673682E-01
  4.676377E-01
  4.681805E-01
  4.676816E-01
  4.673768E-01
  4.662989E-01
  4.659241E-01
  4.652933E-01
  4.656613E-01
  4.657362E-01
  4.664909E-01
  4.665227E-01
  4.668910E-01
  4.664102E-01
  4.663745E-01
  4.657516E-01
  4.658619E-01
  4.655889E-01
  4.661148E-01
  4.661911E-01
  4.669102E-01
  4.669830E-01
  4.675017E-01
  4.672115E-01
  4.672766E-01
  4.665526E-01
  4.663341E-01
  4.655821E-01
  4.656190E-01
  4.653316E-01
  4.658922E-01
  4.699196E-01
  4.696952E-01
  4.693486E-01
  4.685322E-01
  4.679126E-01
  4.670830E-01
  4.666017E-01
  4.659742E-01
  4.657185E-01
  4.653343E-01
  4.653443E-01
  4.652536E-01
  4.655936E-01
  4.658811E-01
  4.666454E-01
  4.673587E-01
  4.684471E-01
  4.692398E-01
  4.700378E-01
  4.701364E-01
  4.699434E-01
  4.689921E-01
  4.679830E-01
  4.666832E-01
  4.658730E-01
  4.652190E-01
  4.652778E-01
  4.654717E-01
  4.661792E-01
  4.667414E-01
  4.675277E-01
  4.679028E-01
  4.682795E-01
  4.681009E-01
  4.679059E-01
  4.672907E-01
  4.669192E-01
  4.664311E-01
  4.664368E-01
  4.664523E-01
  4.669390E-01
  4.672747E-01
  4.678140E-01
  4.678795E-01
  4.678537E-01
  4.671939E-01
  4.665097E-01
  4.655091E-01
  4.649736E-01
  4.646190E-01
  4.650486E-01
  4.656705E-01
  4.667595E-01
  4.674957E-01
  4.681159E-01
  4.679786E-01
  4.676624E-01
  4.669062E-01
  4.665515E-01
  4.663622E-01
  4.669453E-01
  4.676707E-01
  4.687702E-01
  4.694223E-01
  4.684816E-01
  4.682179E-01
  4.687393E-01
  4.678803E-01
  4.680071E-01
  4.670045E-01
  4.671507E-01
  4.661898E-01
  4.663157E-01
  4.653044E-01
  4.654720E-01
  4.647181E-01
  4.653914E-01
  4.652969E-01
  4.666018E-01
  4.669291E-01
  4.683420E-01
  4.684590E-01
  4.694020E-01
  4.688602E-01
  4.690205E-01
  4.676610E-01
  4.671154E-01
  4.653500E-01
  4.648457E-01
  4.635781E-01
  4.638687E-01
  4.634412E-01
  4.644106E-01
  4.644401E-01
  4.657168E-01
  4.659946E-01
  4.674521E-01
  4.677121E-01
  4.687972E-01
  4.682967E-01
  4.684070E-01
  4.670501E-01
  4.667549E-01
  4.655986E-01
  4.659994E-01
  4.657048E-01
  4.667399E-01
  4.665772E-01
  4.672041E-01
  4.662988E-01
  4.661949E-01
  4.648988E-01
  4.649134E-01
  4.641942E-01
  4.650120E-01
  4.650241E-01
  4.662659E-01
  4.663040E-01
  4.672317E-01
  4.667651E-01
  4.671664E-01
  4.662932E-01
  4.665087E-01
  4.657281E-01
  4.663117E-01
  4.660848E-01
  4.672285E-01
  4.673522E-01
  4.718896E-01
  4.704708E-01
  4.706138E-01
  4.683447E-01
  4.681033E-01
  4.658903E-01
  4.660079E-01
  4.642958E-01
  4.649381E-01
  4.637183E-01
  4.648074E-01
  4.639878E-01
  4.654213E-01
  4.648729E-01
  4.664896E-01
  4.660331E-01
  4.676555E-01
  4.671187E-01
  4.685605E-01
  4.677214E-01
  4.687378E-01
  4.673985E-01
  4.679448E-01
  4.662968E-01
  4.667982E-01
  4.653970E-01
  4.663812E-01
  4.655879E-01
  4.671770E-01
  4.668620E-01
  4.686904E-01
  4.682860E-01
  4.696657E-01
  4.685276E-01
  4.690791E-01
  4.672740E-01
  4.675411E-01
  4.659267E-01
  4.667867E-01
  4.659653E-01
  4.675640E-01
  4.671934E-01
  4.687962E-01
  4.679380E-01
  4.686589E-01
  4.667684E-01
  4.666461E-01
  4.644249E-01
  4.646578E-01
  4.634120E-01
  4.649445E-01
  4.649052E-01
  4.671707E-01
  4.671865E-01
  4.688683E-01
  4.679222E-01
  4.686495E-01
  4.671292E-01
  4.678855E-01
  4.669823E-01
  4.686891E-01
  4.686711E-01
  4.708156E-01
  4.705780E-01
  4.696151E-01
  4.683022E-01
  4.693103E-01
  4.674112E-01
  4.680332E-01
  4.660401E-01
  4.667915E-01
  4.649968E-01
  4.658979E-01
  4.642022E-01
  4.652497E-01
  4.638527E-01
  4.653628E-01
  4.644780E-01
  4.663700E-01
  4.656034E-01
  4.673446E-01
  4.662749E-01
  4.677100E-01
  4.664092E-01
  4.676602E-01
  4.661457E-01
  4.671259E-01
  4.653570E-01
  4.662311E-01
  4.645935E-01
  4.658113E-01
  4.646100E-01
  4.662335E-01
  4.653607E-01
  4.672622E-01
  4.666357E-01
  4.686841E-01
  4.679568E-01
  4.695308E-01
  4.679818E-01
  4.686169E-01
  4.663670E-01
  4.668468E-01
  4.650775E-01
  4.664813E-01
  4.656806E-01
  4.676725E-01
  4.668224E-01
  4.681532E-01
  4.663236E-01
  4.667815E-01
  4.645518E-01
  4.652342E-01
  4.637430E-01
  4.653790E-01
  4.647223E-01
  4.668519E-01
  4.663037E-01
  4.682533E-01
  4.673776E-01
  4.689556E-01
  4.677138E-01
  4.689683E-01
  4.675111E-01
  4.687396E-01
  4.674756E-01
  4.690322E-01
  4.680410E-01
  4.720392E-01
  4.700404E-01
  4.704699E-01
  4.678561E-01
  4.680119E-01
  4.654828E-01
  4.659967E-01
  4.639701E-01
  4.650169E-01
  4.634858E-01
  4.649636E-01
  4.637863E-01
  4.655213E-01
  4.644799E-01
  4.662203E-01
  4.650821E-01
  4.666892E-01
  4.654561E-01
  4.670499E-01
  4.658713E-01
  4.675298E-01
  4.663662E-01
  4.679685E-01
  4.667066E-01
  4.682250E-01
  4.669429E-01
  4.685266E-01
  4.673876E-01
  4.691594E-01
  4.681909E-01
  4.700187E-01
  4.688823E-01
  4.702539E-01
  4.684215E-01
  4.690411E-01
  4.666642E-01
  4.671759E-01
  4.652132E-01
  4.665614E-01
  4.656124E-01
  4.678513E-01
  4.674047E-01
  4.695937E-01
  4.685266E-01
  4.696728E-01
  4.674381E-01
  4.676628E-01
  4.650693E-01
  4.656329E-01
  4.639702E-01
  4.657545E-01
  4.652314E-01
  4.677758E-01
  4.674975E-01
  4.698098E-01
  4.689882E-01
  4.706676E-01
  4.693328E-01
  4.707616E-01
  4.694755E-01
  4.711677E-01
  4.701789E-01
  4.719914E-01
  4.707922E-01
  4.688715E-01
  4.676856E-01
  4.685858E-01
  4.671913E-01
  4.678968E-01
  4.664428E-01
  4.672100E-01
  4.658302E-01
  4.665908E-01
  4.651345E-01
  4.658617E-01
  4.645409E-01
  4.656041E-01
  4.647153E-01
  4.661239E-01
  4.653511E-01
  4.666371E-01
  4.656274E-01
  4.667275E-01
  4.656759E-01
  4.668498E-01
  4.658853E-01
  4.670803E-01
  4.660762E-01
  4.672371E-01
  4.662548E-01
  4.674734E-01
  4.665169E-01
  4.676916E-01
  4.666662E-01
  4.678445E-01
  4.669489E-01
  4.683128E-01
  4.674798E-01
  4.686133E-01
  4.672360E-01
  4.676996E-01
  4.658504E-01
  4.663275E-01
  4.650590E-01
  4.664935E-01
  4.661726E-01
  4.681429E-01
  4.677193E-01
  4.690022E-01
  4.676085E-01
  4.680385E-01
  4.662197E-01
  4.667454E-01