# vtk DataFile Version 2.0
title
ASCII
DATASET STRUCTURED_GRID
DIMENSIONS   64   64    1
POINTS   4096  float
  0.000000E+00  0.000000E+00  0.000000E+00
  0.000000E+00  3.906250E-01  0.000000E+00
  0.000000E+00  7.812500E-01  0.000000E+00
  0.000000E+00  1.171875E+00  0.000000E+00
  0.000000E+00  1.562500E+00  0.000000E+00
  0.000000E+00  1.953125E+00  0.000000E+00
  0.000000E+00  2.343750E+00  0.000000E+00
  0.000000E+00  2.734375E+00  0.000000E+00
  0.000000E+00  3.125000E+00  0.000000E+00
  0.000000E+00  3.515625E+00  0.000000E+00
  0.000000E+00  3.906250E+00  0.000000E+00
  0.000000E+00  4.296875E+00  0.000000E+00
  0.000000E+00  4.687500E+00  0.000000E+00
  0.000000E+00  5.078125E+00  0.000000E+00
  0.000000E+00  5.468750E+00  0.000000E+00
  0.000000E+00  5.859375E+00  0.000000E+00
  0.000000E+00  6.250000E+00  0.000000E+00
  0.000000E+00  6.640625E+00  0.000000E+00
  0.000000E+00  7.031250E+00  0.000000E+00
  0.000000E+00  7.421875E+00  0.000000E+00
  0.000000E+00  7.812500E+00  0.000000E+00
  0.000000E+00  8.203125E+00  0.000000E+00
  0.000000E+00  8.593750E+00  0.000000E+00
  0.000000E+00  8.984375E+00  0.000000E+00
  0.000000E+00  9.375000E+00  0.000000E+00
  0.000000E+00  9.765625E+00  0.000000E+00
  0.000000E+00  1.015625E+01  0.000000E+00
  0.000000E+00  1.054688E+01  0.000000E+00
  0.000000E+00  1.093750E+01  0.000000E+00
  0.000000E+00  1.132812E+01  0.000000E+00
  0.000000E+00  1.171875E+01  0.000000E+00
  0.000000E+00  1.210938E+01  0.000000E+00
  0.000000E+00  1.250000E+01  0.000000E+00
  0.000000E+00  1.289062E+01  0.000000E+00
  0.000000E+00  1.328125E+01  0.000000E+00
  0.000000E+00  1.367188E+01  0.000000E+00
  0.000000E+00  1.406250E+01  0.000000E+00
  0.000000E+00  1.445312E+01  0.000000E+00
  0.000000E+00  1.484375E+01  0.000000E+00
  0.000000E+00  1.523438E+01  0.000000E+00
  0.000000E+00  1.562500E+01  0.000000E+00
  0.000000E+00  1.601562E+01  0.000000E+00
  0.000000E+00  1.640625E+01  0.000000E+00
  0.000000E+00  1.679688E+01  0.000000E+00
  0.000000E+00  1.718750E+01  0.000000E+00
  0.000000E+00  1.757812E+01  0.000000E+00
  0.000000E+00  1.796875E+01  0.000000E+00
  0.000000E+00  1.835938E+01  0.000000E+00
  0.000000E+00  1.875000E+01  0.000000E+00
  0.000000E+00  1.914062E+01  0.000000E+00
  0.000000E+00  1.953125E+01  0.000000E+00
  0.000000E+00  1.992188E+01  0.000000E+00
  0.000000E+00  2.031250E+01  0.000000E+00
  0.000000E+00  2.070312E+01  0.000000E+00
  0.000000E+00  2.109375E+01  0.000000E+00
  0.000000E+00  2.148438E+01  0.000000E+00
  0.000000E+00  2.187500E+01  0.000000E+00
  0.000000E+00  2.226562E+01  0.000000E+00
  0.000000E+00  2.265625E+01  0.000000E+00
  0.000000E+00  2.304688E+01  0.000000E+00
  0.000000E+00  2.343750E+01  0.000000E+00
  0.000000E+00  2.382812E+01  0.000000E+00
  0.000000E+00  2.421875E+01  0.000000E+00
  0.000000E+00  2.460938E+01  0.000000E+00
  3.906250E-01  0.000000E+00  0.000000E+00
  3.906250E-01  3.906250E-01  0.000000E+00
  3.906250E-01  7.812500E-01  0.000000E+00
  3.906250E-01  1.171875E+00  0.000000E+00
  3.906250E-01  1.562500E+00  0.000000E+00
  3.906250E-01  1.953125E+00  0.000000E+00
  3.906250E-01  2.343750E+00  0.000000E+00
  3.906250E-01  2.734375E+00  0.000000E+00
  3.906250E-01  3.125000E+00  0.000000E+00
  3.906250E-01  3.515625E+00  0.000000E+00
  3.906250E-01  3.906250E+00  0.000000E+00
  3.906250E-01  4.296875E+00  0.000000E+00
  3.906250E-01  4.687500E+00  0.000000E+00
  3.906250E-01  5.078125E+00  0.000000E+00
  3.906250E-01  5.468750E+00  0.000000E+00
  3.906250E-01  5.859375E+00  0.000000E+00
  3.906250E-01  6.250000E+00  0.000000E+00
  3.906250E-01  6.640625E+00  0.000000E+00
  3.906250E-01  7.031250E+00  0.000000E+00
  3.906250E-01  7.421875E+00  0.000000E+00
  3.906250E-01  7.812500E+00  0.000000E+00
  3.906250E-01  8.203125E+00  0.000000E+00
  3.906250E-01  8.593750E+00  0.000000E+00
  3.906250E-01  8.984375E+00  0.000000E+00
  3.906250E-01  9.375000E+00  0.000000E+00
  3.906250E-01  9.765625E+00  0.000000E+00
  3.906250E-01  1.015625E+01  0.000000E+00
  3.906250E-01  1.054688E+01  0.000000E+00
  3.906250E-01  1.093750E+01  0.000000E+00
  3.906250E-01  1.132812E+01  0.000000E+00
  3.906250E-01  1.171875E+01  0.000000E+00
  3.906250E-01  1.210938E+01  0.000000E+00
  3.906250E-01  1.250000E+01  0.000000E+00
  3.906250E-01  1.289062E+01  0.000000E+00
  3.906250E-01  1.328125E+01  0.000000E+00
  3.906250E-01  1.367188E+01  0.000000E+00
  3.906250E-01  1.406250E+01  0.000000E+00
  3.906250E-01  1.445312E+01  0.000000E+00
  3.906250E-01  1.484375E+01  0.000000E+00
  3.906250E-01  1.523438E+01  0.000000E+00
  3.906250E-01  1.562500E+01  0.000000E+00
  3.906250E-01  1.601562E+01  0.000000E+00
  3.906250E-01  1.640625E+01  0.000000E+00
  3.906250E-01  1.679688E+01  0.000000E+00
  3.906250E-01  1.718750E+01  0.000000E+00
  3.906250E-01  1.757812E+01  0.000000E+00
  3.906250E-01  1.796875E+01  0.000000E+00
  3.906250E-01  1.835938E+01  0.000000E+00
  3.906250E-01  1.875000E+01  0.000000E+00
  3.906250E-01  1.914062E+01  0.000000E+00
  3.906250E-01  1.953125E+01  0.000000E+00
  3.906250E-01  1.992188E+01  0.000000E+00
  3.906250E-01  2.031250E+01  0.000000E+00
  3.906250E-01  2.070312E+01  0.000000E+00
  3.906250E-01  2.109375E+01  0.000000E+00
  3.906250E-01  2.148438E+01  0.000000E+00
  3.906250E-01  2.187500E+01  0.000000E+00
  3.906250E-01  2.226562E+01  0.000000E+00
  3.906250E-01  2.265625E+01  0.000000E+00
  3.906250E-01  2.304688E+01  0.000000E+00
  3.906250E-01  2.343750E+01  0.000000E+00
  3.906250E-01  2.382812E+01  0.000000E+00
  3.906250E-01  2.421875E+01  0.000000E+00
  3.906250E-01  2.460938E+01  0.000000E+00
  7.812500E-01  0.000000E+00  0.000000E+00
  7.812500E-01  3.906250E-01  0.000000E+00
  7.812500E-01  7.812500E-01  0.000000E+00
  7.812500E-01  1.171875E+00  0.000000E+00
  7.812500E-01  1.562500E+00  0.000000E+00
  7.812500E-01  1.953125E+00  0.000000E+00
  7.812500E-01  2.343750E+00  0.000000E+00
  7.812500E-01  2.734375E+00  0.000000E+00
  7.812500E-01  3.125000E+00  0.000000E+00
  7.812500E-01  3.515625E+00  0.000000E+00
  7.812500E-01  3.906250E+00  0.000000E+00
  7.812500E-01  4.296875E+00  0.000000E+00
  7.812500E-01  4.687500E+00  0.000000E+00
  7.812500E-01  5.078125E+00  0.000000E+00
  7.812500E-01  5.468750E+00  0.000000E+00
  7.812500E-01  5.859375E+00  0.000000E+00
  7.812500E-01  6.250000E+00  0.000000E+00
  7.812500E-01  6.640625E+00  0.000000E+00
  7.812500E-01  7.031250E+00  0.000000E+00
  7.812500E-01  7.421875E+00  0.000000E+00
  7.812500E-01  7.812500E+00  0.000000E+00
  7.812500E-01  8.203125E+00  0.000000E+00
  7.812500E-01  8.593750E+00  0.000000E+00
  7.812500E-01  8.984375E+00  0.000000E+00
  7.812500E-01  9.375000E+00  0.000000E+00
  7.812500E-01  9.765625E+00  0.000000E+00
  7.812500E-01  1.015625E+01  0.000000E+00
  7.812500E-01  1.054688E+01  0.000000E+00
  7.812500E-01  1.093750E+01  0.000000E+00
  7.812500E-01  1.132812E+01  0.000000E+00
  7.812500E-01  1.171875E+01  0.000000E+00
  7.812500E-01  1.210938E+01  0.000000E+00
  7.812500E-01  1.250000E+01  0.000000E+00
  7.812500E-01  1.289062E+01  0.000000E+00
  7.812500E-01  1.328125E+01  0.000000E+00
  7.812500E-01  1.367188E+01  0.000000E+00
  7.812500E-01  1.406250E+01  0.000000E+00
  7.812500E-01  1.445312E+01  0.000000E+00
  7.812500E-01  1.484375E+01  0.000000E+00
  7.812500E-01  1.523438E+01  0.000000E+00
  7.812500E-01  1.562500E+01  0.000000E+00
  7.812500E-01  1.601562E+01  0.000000E+00
  7.812500E-01  1.640625E+01  0.000000E+00
  7.812500E-01  1.679688E+01  0.000000E+00
  7.812500E-01  1.718750E+01  0.000000E+00
  7.812500E-01  1.757812E+01  0.000000E+00
  7.812500E-01  1.796875E+01  0.000000E+00
  7.812500E-01  1.835938E+01  0.000000E+00
  7.812500E-01  1.875000E+01  0.000000E+00
  7.812500E-01  1.914062E+01  0.000000E+00
  7.812500E-01  1.953125E+01  0.000000E+00
  7.812500E-01  1.992188E+01  0.000000E+00
  7.812500E-01  2.031250E+01  0.000000E+00
  7.812500E-01  2.070312E+01  0.000000E+00
  7.812500E-01  2.109375E+01  0.000000E+00
  7.812500E-01  2.148438E+01  0.000000E+00
  7.812500E-01  2.187500E+01  0.000000E+00
  7.812500E-01  2.226562E+01  0.000000E+00
  7.812500E-01  2.265625E+01  0.000000E+00
  7.812500E-01  2.304688E+01  0.000000E+00
  7.812500E-01  2.343750E+01  0.000000E+00
  7.812500E-01  2.382812E+01  0.000000E+00
  7.812500E-01  2.421875E+01  0.000000E+00
  7.812500E-01  2.460938E+01  0.000000E+00
  1.171875E+00  0.000000E+00  0.000000E+00
  1.171875E+00  3.906250E-01  0.000000E+00
  1.171875E+00  7.812500E-01  0.000000E+00
  1.171875E+00  1.171875E+00  0.000000E+00
  1.171875E+00  1.562500E+00  0.000000E+00
  1.171875E+00  1.953125E+00  0.000000E+00
  1.171875E+00  2.343750E+00  0.000000E+00
  1.171875E+00  2.734375E+00  0.000000E+00
  1.171875E+00  3.125000E+00  0.000000E+00
  1.171875E+00  3.515625E+00  0.000000E+00
  1.171875E+00  3.906250E+00  0.000000E+00
  1.171875E+00  4.296875E+00  0.000000E+00
  1.171875E+00  4.687500E+00  0.000000E+00
  1.171875E+00  5.078125E+00  0.000000E+00
  1.171875E+00  5.468750E+00  0.000000E+00
  1.171875E+00  5.859375E+00  0.000000E+00
  1.171875E+00  6.250000E+00  0.000000E+00
  1.171875E+00  6.640625E+00  0.000000E+00
  1.171875E+00  7.031250E+00  0.000000E+00
  1.171875E+00  7.421875E+00  0.000000E+00
  1.171875E+00  7.812500E+00  0.000000E+00
  1.171875E+00  8.203125E+00  0.000000E+00
  1.171875E+00  8.593750E+00  0.000000E+00
  1.171875E+00  8.984375E+00  0.000000E+00
  1.171875E+00  9.375000E+00  0.000000E+00
  1.171875E+00  9.765625E+00  0.000000E+00
  1.171875E+00  1.015625E+01  0.000000E+00
  1.171875E+00  1.054688E+01  0.000000E+00
  1.171875E+00  1.093750E+01  0.000000E+00
  1.171875E+00  1.132812E+01  0.000000E+00
  1.171875E+00  1.171875E+01  0.000000E+00
  1.171875E+00  1.210938E+01  0.000000E+00
  1.171875E+00  1.250000E+01  0.000000E+00
  1.171875E+00  1.289062E+01  0.000000E+00
  1.171875E+00  1.328125E+01  0.000000E+00
  1.171875E+00  1.367188E+01  0.000000E+00
  1.171875E+00  1.406250E+01  0.000000E+00
  1.171875E+00  1.445312E+01  0.000000E+00
[...]
POINT_DATA   4096
SCALARS CON  float  1
LOOKUP_TABLE default
  4.697383E-01
  4.693020E-01
  4.726122E-01
  4.707247E-01
  4.721639E-01
  4.690343E-01
  4.704437E-01
  4.682442E-01
  4.706878E-01
  4.688338E-01
  4.707703E-01
  4.680650E-01
  4.695414E-01
  4.671927E-01
  4.697092E-01
  4.685258E-01
  4.717051E-01
  4.703267E-01
  4.725270E-01
  4.698019E-01
  4.707836E-01
  4.672795E-01
  4.679686E-01
  4.645761E-01
  4.657550E-01
  4.632797E-01
  4.657421E-01
  4.645658E-01
  4.677899E-01
  4.664597E-01
  4.687717E-01
  4.664402E-01
  4.683710E-01
  4.664720E-01
  4.691723E-01
  4.676294E-01
  4.698545E-01
  4.672163E-01
  4.683380E-01
  4.651066E-01
  4.662533E-01
  4.634347E-01
  4.651211E-01
  4.629152E-01
  4.654293E-01
  4.643863E-01
  4.682472E-01
  4.682235E-01
  4.721048E-01
  4.707202E-01
  4.721980E-01
  4.684641E-01
  4.689654E-01
  4.663233E-01
  4.694977E-01
  4.696345E-01
  4.741019E-01
  4.732990E-01
  4.750887E-01
  4.712245E-01
  4.709688E-01
  4.668377E-01
  4.680068E-01
  4.662557E-01
  4.714549E-01
  4.715522E-01
  4.740355E-01
  4.725215E-01
  4.727045E-01
  4.693240E-01
  4.690473E-01
  4.667737E-01
  4.684195E-01
  4.677749E-01
  4.700194E-01
  4.689355E-01
  4.702551E-01
  4.684437E-01
  4.696805E-01
  4.684655E-01
  4.706038E-01
  4.699937E-01
  4.719475E-01
  4.703120E-01
  4.708602E-01
  4.681189E-01
  4.683123E-01
  4.659489E-01
  4.669058E-01
  4.653568E-01
  4.670649E-01
  4.662274E-01
  4.685490E-01
  4.680038E-01
  4.700640E-01
  4.687006E-01
  4.696893E-01
  4.674489E-01
  4.680860E-01
  4.660687E-01
  4.672828E-01
  4.658362E-01
  4.672810E-01
  4.655749E-01
  4.664013E-01
  4.640920E-01
  4.647532E-01
  4.629536E-01
  4.647441E-01
  4.644108E-01
  4.676045E-01
  4.681439E-01
  4.712244E-01
  4.704735E-01
  4.714913E-01
  4.689449E-01
  4.695840E-01
  4.684976E-01
  4.716580E-01
  4.725730E-01
  4.758799E-01
  4.749018E-01
  4.753040E-01
  4.718841E-01
  4.713013E-01
  4.684645E-01
  4.695109E-01
  4.686650E-01
  4.673626E-01
  4.697405E-01
  4.723212E-01
  4.726207E-01
  4.721302E-01
  4.699137E-01
  4.686047E-01
  4.673712E-01
  4.679682E-01
  4.683683E-01
  4.695655E-01
  4.695374E-01
  4.698523E-01
  4.691670E-01
  4.694393E-01
  4.692776E-01
  4.702475E-01
  4.704682E-01
  4.711935E-01
  4.705684E-01
  4.701663E-01
  4.685395E-01
  4.675467E-01
  4.658311E-01
  4.652115E-01
  4.642392E-01
  4.645885E-01
  4.645721E-01
  4.655663E-01
  4.656855E-01
  4.663783E-01
  4.660994E-01
  4.666687E-01
  4.666410E-01
  4.675656E-01
  4.675696E-01
  4.679683E-01
  4.670268E-01
  4.664394E-01
  4.648112E-01
  4.639760E-01
  4.625334E-01
  4.623024E-01
  4.618954E-01
  4.630819E-01
  4.642569E-01
  4.667884E-01
  4.685827E-01
  4.706262E-01
  4.708031E-01
  4.706240E-01
  4.689632E-01
  4.683359E-01
  4.680015E-01
  4.698629E-01
  4.718003E-01
  4.743344E-01
  4.747700E-01
  4.741834E-01
  4.712345E-01
  4.684423E-01
  4.653556E-01
  4.645353E-01
  4.647751E-01
  4.686074E-01
  4.714747E-01
  4.723886E-01
  4.731976E-01
  4.710070E-01
  4.691013E-01
  4.659400E-01
  4.652417E-01
  4.647344E-01
  4.667469E-01
  4.677982E-01
  4.697773E-01
  4.695955E-01
  4.700250E-01
  4.688654E-01
  4.693558E-01
  4.691201E-01
  4.706855E-01
  4.708634E-01
  4.717950E-01
  4.705793E-01
  4.700902E-01
  4.680828E-01
  4.676119E-01
  4.661489E-01
  4.663402E-01
  4.654591E-01
  4.662166E-01
  4.659907E-01
  4.673956E-01
  4.674969E-01
  4.686198E-01
  4.678478E-01
  4.679037E-01
  4.664302E-01
  4.665116E-01
  4.657065E-01
  4.666058E-01
  4.661740E-01
  4.667055E-01
  4.653937E-01
  4.651635E-01
  4.638192E-01
  4.644571E-01
  4.645189E-01
  4.664838E-01
  4.673028E-01
  4.692611E-01
  4.693455E-01
  4.700364E-01
  4.687358E-01
  4.685774E-01
  4.675780E-01
  4.689491E-01
  4.699717E-01
  4.726348E-01
  4.732979E-01
  4.739707E-01
  4.719544E-01
  4.704862E-01
  4.676773E-01
  4.668888E-01
  4.658665E-01
  4.674117E-01
  4.649597E-01
  4.692675E-01
  4.697735E-01
  4.720023E-01
  4.693480E-01
  4.688843E-01
  4.652559E-01
  4.658080E-01
  4.644208E-01
  4.671885E-01
  4.669922E-01
  4.696429E-01
  4.684498E-01
  4.700021E-01
  4.682752E-01
  4.700819E-01
  4.691127E-01
  4.715951E-01
  4.706878E-01
  4.724285E-01
  4.701943E-01
  4.704902E-01
  4.671639E-01
  4.670145E-01
  4.639507E-01
  4.646334E-01
  4.627068E-01
  4.645263E-01
  4.634755E-01
  4.657686E-01
  4.648061E-01
  4.669564E-01
  4.658230E-01
  4.679024E-01
  4.667677E-01
  4.687542E-01
  4.672695E-01
  4.686078E-01
  4.663029E-01
  4.668944E-01
  4.641979E-01
  4.649833E-01
  4.631392E-01
  4.652562E-01
  4.648024E-01
  4.678781E-01
  4.676306E-01
  4.701368E-01
  4.687617E-01
  4.699112E-01
  4.673275E-01
  4.678317E-01
  4.655211E-01
  4.672777E-01
  4.667693E-01
  4.700419E-01
  4.699233E-01
  4.720937E-01
  4.697193E-01
  4.693709E-01
  4.652540E-01
  4.647077E-01
  4.621471E-01
  4.644449E-01
  4.671641E-01
  4.706187E-01
  4.696439E-01
  4.716109E-01
  4.682257E-01
  4.679599E-01
  4.637082E-01
  4.644610E-01
  4.626263E-01
  4.660127E-01
  4.658482E-01
  4.693745E-01
  4.680763E-01
  4.700560E-01
  4.677701E-01
  4.698744E-01
  4.686490E-01
  4.719469E-01
  4.711184E-01
  4.735552E-01
  4.709037E-01
  4.713925E-01
  4.675012E-01
  4.678187E-01
  4.646219E-01
  4.660175E-01
  4.639027E-01
  4.662839E-01
  4.651093E-01
  4.683190E-01
  4.675606E-01
  4.704294E-01
  4.685406E-01
  4.699550E-01
  4.670377E-01
  4.683847E-01
  4.662801E-01
  4.686570E-01
  4.670271E-01
  4.690112E-01
  4.665066E-01
  4.679236E-01
  4.657350E-01
  4.682500E-01
  4.672341E-01
  4.702287E-01
  4.687244E-01
  4.705902E-01
  4.678968E-01
  4.689368E-01
  4.659415E-01
  4.672494E-01
  4.651057E-01
  4.676946E-01
  4.667967E-01
  4.699728E-01
  4.686402E-01
  4.705665E-01
  4.678246E-01
  4.688295E-01
  4.659172E-01
  4.673875E-01
  4.653574E-01
  4.679771E-01
  4.642972E-01
  4.678880E-01
  4.673517E-01
  4.699457E-01
  4.675356E-01
  4.683419E-01
  4.651272E-01
  4.664336E-01
  4.646323E-01
  4.674463E-01
  4.664945E-01
  4.692173E-01
  4.675269E-01
  4.695113E-01
  4.676695E-01
  4.702482E-01
  4.693774E-01
  4.726346E-01
  4.715832E-01
  4.736524E-01
  4.707327E-01
  4.708721E-01
  4.665963E-01
  4.663716E-01
  4.627947E-01
  4.640518E-01
  4.622348E-01
  4.650174E-01
  4.641703E-01
  4.673088E-01
  4.663426E-01
  4.691078E-01
  4.677276E-01
  4.701851E-01
  4.686295E-01
  4.709238E-01
  4.690164E-01
  4.706432E-01
  4.678451E-01
  4.686871E-01
  4.656284E-01
  4.670012E-01
  4.651798E-01
  4.680300E-01
  4.672800E-01
  4.703200E-01
  4.688470E-01
  4.706525E-01
  4.679780E-01
  4.689784E-01
  4.659759E-01
  4.670627E-01
  4.645195E-01
  4.664149E-01
  4.648891E-01
  4.676883E-01
  4.665699E-01
  4.690561E-01
  4.669759E-01
  4.681923E-01
  4.650124E-01
  4.657650E-01
  4.630576E-01
  4.651881E-01
  4.666716E-01
  4.686232E-01
  4.676827E-01
  4.695262E-01
  4.677104E-01
  4.683300E-01
  4.657142E-01
  4.665344E-01
  4.650858E-01
  4.674110E-01
  4.669866E-01
  4.693541E-01
  4.681074E-01
  4.694515E-01
  4.677808E-01
  4.697134E-01
  4.693524E-01
  4.724474E-01
  4.721876E-01
  4.739642E-01
  4.714207E-01
  4.709541E-01
  4.671756E-01
  4.668923E-01
  4.644315E-01
  4.659026E-01
  4.649845E-01
  4.675060E-01
  4.672133E-01
  4.700686E-01
  4.697680E-01
  4.720820E-01
  4.706715E-01
  4.716609E-01
  4.693251E-01
  4.702218E-01
  4.685072E-01
  4.701270E-01
  4.686098E-01
  4.697668E-01
  4.675975E-01
  4.685993E-01
  4.670906E-01
  4.692258E-01
  4.685657E-01
  4.706826E-01
  4.691627E-01
  4.701311E-01
  4.677804E-01
  4.684879E-01
  4.663357E-01
  4.675050E-01
  4.659809E-01
  4.678585E-01
  4.668930E-01
  4.688762E-01
  4.674711E-01
  4.687611E-01
  4.668906E-01
  4.682024E-01
  4.666644E-01
  4.682205E-01
  4.666444E-01
  4.680848E-01
  4.634826E-01
  4.654771E-01
  4.657299E-01
  4.681158E-01
  4.679278E-01
  4.693820E-01
  4.682990E-01
  4.692964E-01
  4.682582E-01
  4.695324E-01
  4.686136E-01
  4.696377E-01
  4.682496E-01
  4.690212E-01
  4.679998E-01
  4.697810E-01
  4.699545E-01
  4.724133E-01
  4.722160E-01
  4.732093E-01
  4.709193E-01
  4.699512E-01
  4.665557E-01
  4.657430E-01
  4.636880E-01
  4.648661E-01
  4.646904E-01
  4.670098E-01
  4.670371E-01
  4.688821E-01
  4.682509E-01
  4.696720E-01
  4.690100E-01
  4.706799E-01
  4.702546E-01
  4.718137E-01
  4.707146E-01
  4.710981E-01
  4.687076E-01
  4.682436E-01
  4.658831E-01
  4.663713E-01
  4.654925E-01
  4.673665E-01
  4.672530E-01
  4.691078E-01
  4.684187E-01
  4.695525E-01
  4.683016E-01
  4.690850E-01
  4.675896E-01
  4.681837E-01
  4.666589E-01
  4.675292E-01
  4.665726E-01
  4.680655E-01
  4.674638E-01
  4.688425E-01
  4.676705E-01
  4.681986E-01
  4.661447E-01
  4.660403E-01
  4.638851E-01
  4.643911E-01
  4.655348E-01
  4.663224E-01
  4.662917E-01
  4.680966E-01
  4.682755E-01
  4.694415E-01
  4.686366E-01
  4.691343E-01
  4.683231E-01
  4.692961E-01
  4.689101E-01
  4.697962E-01
  4.687889E-01
  4.689943E-01
  4.679005E-01
  4.689464E-01
  4.693038E-01
  4.715557E-01
  4.719983E-01
  4.729123E-01
  4.711161E-01
  4.699655E-01
  4.672878E-01
  4.668141E-01
  4.659436E-01
  4.674813E-01
  4.679661E-01
  4.698624E-01
  4.699507E-01
  4.711944E-01
  4.707147E-01
  4.714941E-01
  4.705288E-01
  4.708107E-01
  4.695361E-01
  4.698651E-01
  4.688898E-01
  4.694257E-01
  4.682896E-01
  4.683789E-01
  4.669239E-01
  4.672243E-01
  4.665371E-01
  4.677584E-01
  4.676229E-01
  4.687962E-01
  4.682186E-01
  4.689595E-01
  4.681908E-01
  4.689057E-01
  4.681006E-01
  4.687726E-01
  4.681069E-01
  4.691926E-01
  4.689847E-01
  4.701585E-01
  4.694724E-01
  4.698609E-01
  4.685904E-01
  4.688840E-01
  4.678208E-01
  4.681815E-01
  4.668293E-01
  4.668157E-01
  4.624683E-01
  4.639024E-01
  4.646530E-01
  4.671533E-01
  4.681032E-01
  4.700029E-01
  4.699007E-01
  4.707468E-01
  4.699086E-01
  4.703751E-01
  4.693166E-01
  4.695186E-01
  4.681762E-01
  4.683525E-01
  4.675374E-01
  4.687922E-01
  4.691922E-01
  4.711665E-01
  4.713085E-01
  4.720028E-01
  4.702799E-01
  4.692565E-01
  4.666841E-01
  4.660784E-01
  4.650570E-01
  4.664747E-01
  4.670457E-01
  4.689454E-01
  4.688107E-01
  4.693698E-01
  4.680908E-01
  4.683200E-01
  4.676153E-01
  4.688952E-01
  4.690401E-01
  4.703961E-01
  4.696651E-01
  4.695167E-01
  4.673374E-01
  4.664879E-01
  4.646693E-01
  4.650150E-01
  4.646266E-01
  4.660488E-01
  4.661282E-01
  4.675424E-01
  4.674450E-01
  4.687084E-01
  4.684403E-01
  4.693429E-01
  4.684753E-01
  4.687567E-01
  4.676192E-01
  4.682216E-01
  4.678784E-01
  4.693112E-01
  4.693463E-01
  4.704477E-01
  4.695132E-01
  4.693128E-01
  4.671282E-01
  4.660884E-01
  4.637549E-01
  4.633915E-01
  4.652053E-01
  4.658768E-01
  4.657838E-01
  4.676186E-01
  4.679649E-01
  4.693416E-01
  4.686883E-01
  4.691505E-01
  4.681297E-01
  4.687765E-01
  4.680953E-01
  4.687877E-01
  4.677366E-01
  4.679740E-01
  4.669275E-01
  4.679474E-01
  4.682330E-01
  4.704143E-01
  4.709058E-01
  4.720128E-01
  4.705500E-01
  4.697651E-01
  4.674304E-01
  4.672185E-01
  4.665607E-01
  4.682400E-01
  4.687775E-01
  4.705296E-01
  4.702377E-01
  4.708666E-01
  4.697013E-01
  4.698921E-01
  4.685985E-01
  4.687932E-01
  4.675835E-01
  4.679674E-01
  4.670054E-01
  4.675440E-01
  4.665318E-01
  4.668983E-01
  4.658403E-01
  4.664860E-01
  4.659815E-01
  4.671717E-01
  4.669194E-01
  4.680176E-01
  4.675162E-01
  4.684174E-01
  4.677945E-01
  4.685212E-01
  4.676302E-01
  4.682010E-01
  4.675673E-01
  4.688567E-01
  4.690256E-01
  4.706348E-01
  4.703482E-01
  4.709622E-01
  4.696995E-01
  4.697692E-01
  4.683685E-01
  4.683810E-01
  4.667813E-01
  4.665999E-01
  4.632081E-01
  4.646443E-01
  4.649837E-01
  4.671258E-01
  4.675986E-01
  4.693047E-01
  4.689311E-01
  4.696740E-01
  4.685223E-01
  4.688198E-01
  4.674973E-01
  4.677617E-01
  4.665131E-01
  4.670842E-01
  4.665090E-01
  4.680559E-01
  4.684387E-01
  4.704955E-01
  4.706267E-01
  4.716284E-01
  4.701586E-01
  4.695097E-01
  4.669430E-01
  4.662402E-01
  4.647655E-01
  4.658583E-01
  4.660390E-01
  4.678478E-01
  4.675372E-01
  4.680859E-01
  4.666052E-01
  4.668007E-01
  4.659419E-01
  4.672731E-01
  4.673070E-01
  4.687000E-01
  4.678748E-01
  4.679258E-01
  4.659765E-01
  4.656816E-01
  4.642815E-01
  4.650822E-01
  4.647692E-01
  4.662350E-01
  4.660854E-01
  4.674012E-01
  4.670181E-01
  4.681016E-01
  4.674195E-01
  4.680658E-01
  4.668887E-01
  4.672286E-01
  4.661911E-01
  4.671781E-01
  4.670677E-01
  4.688394E-01
  4.689680E-01
  4.702450E-01
  4.692493E-01
  4.691182E-01
  4.668861E-01
  4.660928E-01
  4.639787E-01
  4.640276E-01
  4.671191E-01
  4.676063E-01
  4.670648E-01
  4.679512E-01
  4.676292E-01
  4.683209E-01
  4.674641E-01
  4.676130E-01
  4.665354E-01
  4.668635E-01
  4.661569E-01
  4.667553E-01
  4.661043E-01
  4.667102E-01
  4.663244E-01
  4.676237E-01
  4.681966E-01
  4.702544E-01
  4.708670E-01
  4.719913E-01
  4.709041E-01
  4.701831E-01
  4.678568E-01
  4.670081E-01
  4.656555E-01
  4.663617E-01
  4.664096E-01
  4.678217E-01
  4.677978E-01
  4.686785E-01
  4.680771E-01
  4.685493E-01
  4.676725E-01
  4.678930E-01
  4.667947E-01
  4.669525E-01
  4.660425E-01
  4.665669E-01
  4.660122E-01
  4.667449E-01
  4.662806E-01
  4.671146E-01
  4.668215E-01
  4.677951E-01
  4.674346E-01
  4.680619E-01
  4.671938E-01
  4.673705E-01
  4.662683E-01
  4.664675E-01
  4.656372E-01
  4.663708E-01
  4.663075E-01
  4.678364E-01
  4.682190E-01
  4.695198E-01
  4.690160E-01
  4.691959E-01
  4.679125E-01
  4.679912E-01
  4.671717E-01
  4.678415E-01
  4.673233E-01
  4.678979E-01
  4.661370E-01
  4.670365E-01
  4.670615E-01
  4.676693E-01
  4.675786E-01
  4.681632E-01
  4.679296E-01
  4.681370E-01
  4.673753E-01
  4.671033E-01
  4.660928E-01
  4.659099E-01
  4.653707E-01
  4.660086E-01
  4.664767E-01
  4.680183E-01
  4.689906E-01
  4.704894E-01
  4.709070E-01
  4.714483E-01
  4.705909E-01
  4.696580E-01
  4.674301E-01
  4.657321E-01
  4.637849E-01
  4.634187E-01
  4.632833E-01
  4.643570E-01
  4.647124E-01
  4.654085E-01
  4.651508E-01
  4.656709E-01
  4.658787E-01
  4.671249E-01
  4.676819E-01
  4.684948E-01
  4.679468E-01
  4.675207E-01
  4.662077E-01
  4.658104E-01
  4.652102E-01
  4.657930E-01
  4.659807E-01
  4.668800E-01
  4.668862E-01
  4.672664E-01
  4.666489E-01
  4.665195E-01
  4.656651E-01
  4.656427E-01
  4.652029E-01
  4.657606E-01
  4.658655E-01
  4.667553E-01
  4.668967E-01
  4.675479E-01
  4.672486E-01
  4.673355E-01
  4.664457E-01
  4.660813E-01
  4.650973E-01
  4.651327E-01
  4.649423E-01
  4.658200E-01
  4.706449E-01
  4.702292E-01
  4.695136E-01
  4.684888E-01
  4.677958E-01
  4.670925E-01
  4.667001E-01
  4.661625E-01
  4.658691E-01
  4.654669E-01
  4.653822E-01
  4.652498E-01
  4.655010E-01
  4.658064E-01
  4.666063E-01
  4.674940E-01
  4.687512E-01
  4.697926E-01
  4.707650E-01
  4.710317E-01
  4.708045E-01
  4.696668E-01
  4.682041E-01
  4.664180E-01
  4.651510E-01
  4.643255E-01
  4.643820E-01
  4.647488E-01
  4.655667E-01
  4.662707E-01
  4.671708E-01
  4.677931E-01
  4.683742E-01
  4.683546E-01
  4.680874E-01
  4.673547E-01
  4.668500E-01
  4.664281E-01
  4.665404E-01
  4.666972E-01
  4.671630E-01
  4.674785E-01
  4.679900E-01
  4.681896E-01
  4.682636E-01
  4.676473E-01
  4.667534E-01
  4.654667E-01
  4.645999E-01
  4.641305E-01
  4.646061E-01
  4.655280E-01
  4.669562E-01
  4.680428E-01
  4.687412E-01
  4.684141E-01
  4.675353E-01
  4.661349E-01
  4.652058E-01
  4.648738E-01
  4.657185E-01
  4.671130E-01
  4.688959E-01
  4.700689E-01
  4.695815E-01
  4.692993E-01
  4.692913E-01
  4.679344E-01
  4.676915E-01
  4.667922E-01
  4.671786E-01
  4.665926E-01
  4.668159E-01
  4.657781E-01
  4.656261E-01
  4.646277E-01
  4.650833E-01
  4.651334E-01
  4.666834E-01
  4.673969E-01
  4.689163E-01
  4.690364E-01
  4.697967E-01
  4.692958E-01
  4.695267E-01
  4.683092E-01
  4.675226E-01
  4.653127E-01
  4.641597E-01
  4.625863E-01
  4.628489E-01
  4.627643E-01
  4.639372E-01
  4.640704E-01
  4.651978E-01
  4.655304E-01
  4.671887E-01
  4.679573E-01
  4.693940E-01
  4.690831E-01
  4.689469E-01
  4.672721E-01
  4.665770E-01
  4.653121E-01
  4.657002E-01
  4.656509E-01
  4.668728E-01
  4.669711E-01
  4.676262E-01
  4.666793E-01
  4.662413E-01
  4.646417E-01
  4.643395E-01
  4.636832E-01
  4.647654E-01
  4.653324E-01
  4.669402E-01
  4.671495E-01
  4.677623E-01
  4.668357E-01
  4.666113E-01
  4.653281E-01
  4.651917E-01
  4.643704E-01
  4.650593E-01
  4.653621E-01
  4.671740E-01
  4.680864E-01
  4.731906E-01
  4.714722E-01
  4.709794E-01
  4.682692E-01
  4.677308E-01
  4.656116E-01
  4.658588E-01
  4.644070E-01
  4.651076E-01
  4.639515E-01
  4.648965E-01
  4.640268E-01
  4.653440E-01
  4.648959E-01
  4.665656E-01
  4.662641E-01
  4.678265E-01
  4.672553E-01
  4.685429E-01
  4.677659E-01
  4.688299E-01
  4.676566E-01
  4.681223E-01
  4.663493E-01
  4.665336E-01
  4.649909E-01
  4.658294E-01
  4.650822E-01
  4.666169E-01
  4.664086E-01
  4.683554E-01
  4.683519E-01
  4.700646E-01
  4.692237E-01
  4.696678E-01
  4.676461E-01
  4.675443E-01
  4.658065E-01
  4.665611E-01
  4.657938E-01
  4.673090E-01
  4.670076E-01
  4.686848E-01
  4.681297E-01
  4.689830E-01
  4.670997E-01
  4.665774E-01
  4.639550E-01
  4.638238E-01
  4.626833E-01
  4.645515E-01
  4.651380E-01
  4.678374E-01
  4.681310E-01
  4.696024E-01
  4.682259E-01
  4.682097E-01
  4.660879E-01
  4.663779E-01
  4.655495E-01
  4.676734E-01
  4.685181E-01
  4.714517E-01
  4.718454E-01
  4.705708E-01
  4.691239E-01
  4.697209E-01
  4.672530E-01
  4.675423E-01
  4.654712E-01
  4.664446E-01
  4.648716E-01
  4.659421E-01
  4.641851E-01
  4.651076E-01
  4.635364E-01
  4.650736E-01
  4.643489E-01
  4.665420E-01
  4.658830E-01
  4.674848E-01
  4.659626E-01
  4.670216E-01
  4.656073E-01
  4.671982E-01
  4.661371E-01
  4.674582E-01
  4.656315E-01
  4.662886E-01
  4.644382E-01
  4.657262E-01
  4.646776E-01
  4.664329E-01
  4.654432E-01
  4.672059E-01
  4.665297E-01
  4.688469E-01
  4.684764E-01
  4.703518E-01
  4.687336E-01
  4.690391E-01
  4.662552E-01
  4.663324E-01
  4.643298E-01
  4.658246E-01
  4.652677E-01
  4.676500E-01
  4.670673E-01
  4.685134E-01
  4.664625E-01
  4.665386E-01
  4.638418E-01
  4.643221E-01
  4.629259E-01
  4.650277E-01
  4.648700E-01
  4.673703E-01
  4.667933E-01
  4.684912E-01
  4.672479E-01
  4.686659E-01
  4.674028E-01
  4.687772E-01
  4.673439E-01
  4.686241E-01
  4.674523E-01
  4.693437E-01
  4.687214E-01
  4.724638E-01
  4.700997E-01
  4.704845E-01
  4.674927E-01
  4.677101E-01
  4.649405E-01
  4.656051E-01
  4.633666E-01
  4.645786E-01
  4.628887E-01
  4.646422E-01
  4.634520E-01
  4.655892E-01
  4.645621E-01
  4.665551E-01
  4.650908E-01
  4.665278E-01
  4.646801E-01
  4.661532E-01
  4.647800E-01
  4.669087E-01
  4.659986E-01
  4.681711E-01
  4.669559E-01
  4.687483E-01
  4.673108E-01
  4.690695E-01
  4.676801E-01
  4.695101E-01
  4.682710E-01
  4.703524E-01
  4.692758E-01
  4.710836E-01
  4.691082E-01
  4.696432E-01
  4.666385E-01
  4.669537E-01
  4.646498E-01
  4.662110E-01
  4.651668E-01
  4.676628E-01
  4.671426E-01
  4.697207E-01
  4.687179E-01
  4.701539E-01
  4.675503E-01
  4.675103E-01
  4.642515E-01
  4.647404E-01
  4.629753E-01
  4.652707E-01
  4.649470E-01
  4.679534E-01
  4.676268E-01
  4.701613E-01
  4.691722E-01
  4.710619E-01
  4.695772E-01
  4.712034E-01
  4.697270E-01
  4.715973E-01
  4.704506E-01
  4.724897E-01
  4.711170E-01
  4.685950E-01
  4.674084E-01
  4.686981E-01
  4.669434E-01
  4.677670E-01
  4.659177E-01
  4.669229E-01
  4.652562E-01
  4.662668E-01
  4.644832E-01
  4.654741E-01
  4.639697E-01
  4.655522E-01
  4.647163E-01
  4.666604E-01
  4.655944E-01
  4.667859E-01
  4.649089E-01
  4.658081E-01
  4.644062E-01
  4.662370E-01
  4.655760E-01
  4.674958E-01
  4.663613E-01
  4.677564E-01
  4.664840E-01
  4.681067E-01
  4.670309E-01
  4.684946E-01
  4.670004E-01
  4.682039E-01
  4.669124E-01
  4.686436E-01
  4.677134E-01
  4.692064E-01
  4.674203E-01
  4.678571E-01
  4.653902E-01
  4.659227E-01
  4.643672E-01
  4.663029E-01
  4.660890E-01
  4.687381E-01
  4.682741E-01
  4.697843E-01
  4.677758E-01
  4.680074E-01
  4.655095E-01
  4.661564E-01