# vtk DataFile Version 2.0
title
ASCII
DATASET STRUCTURED_GRID
DIMENSIONS   64   64    1
POINTS   4096  float
  0.000000E+00  0.000000E+00  0.000000E+00
  0.000000E+00  3.906250E-01  0.000000E+00
  0.000000E+00  7.812500E-01  0.000000E+00
  0.000000E+00  1.171875E+00  0.000000E+00
  0.000000E+00  1.562500E+00  0.000000E+00
  0.000000E+00  1.953125E+00  0.000000E+00
  0.000000E+00  2.343750E+00  0.000000E+00
  0.000000E+00  2.734375E+00  0.000000E+00
  0.000000E+00  3.125000E+00  0.000000E+00
  0.000000E+00  3.515625E+00  0.000000E+00
  0.000000E+00  3.906250E+00  0.000000E+00
  0.000000E+00  4.296875E+00  0.000000E+00
  0.000000E+00  4.687500E+00  0.000000E+00
  0.000000E+00  5.078125E+00  0.000000E+00
  0.000000E+00  5.468750E+00  0.000000E+00
  0.000000E+00  5.859375E+00  0.000000E+00
  0.000000E+00  6.250000E+00  0.000000E+00
  0.000000E+00  6.640625E+00  0.000000E+00
  0.000000E+00  7.031250E+00  0.000000E+00
  0.000000E+00  7.421875E+00  0.000000E+00
  0.000000E+00  7.812500E+00  0.000000E+00
  0.000000E+00  8.203125E+00  0.000000E+00
  0.000000E+00  8.593750E+00  0.000000E+00
  0.000000E+00  8.984375E+00  0.000000E+00
  0.000000E+00  9.375000E+00  0.000000E+00
  0.000000E+00  9.765625E+00  0.000000E+00
  0.000000E+00  1.015625E+01  0.000000E+00
  0.000000E+00  1.054688E+01  0.000000E+00
  0.000000E+00  1.093750E+01  0.000000E+00
  0.000000E+00  1.132812E+01  0.000000E+00
  0.000000E+00  1.171875E+01  0.000000E+00
  0.000000E+00  1.210938E+01  0.000000E+00
  0.000000E+00  1.250000E+01  0.000000E+00
  0.000000E+00  1.289062E+01  0.000000E+00
  0.000000E+00  1.328125E+01  0.000000E+00
  0.000000E+00  1.367188E+01  0.000000E+00
  0.000000E+00  1.406250E+01  0.000000E+00
  0.000000E+00  1.445312E+01  0.000000E+00
  0.000000E+00  1.484375E+01  0.000000E+00
  0.000000E+00  1.523438E+01  0.000000E+00
  0.000000E+00  1.562500E+01  0.000000E+00
  0.000000E+00  1.601562E+01  0.000000E+00
  0.000000E+00  1.640625E+01  0.000000E+00
  0.000000E+00  1.679688E+01  0.000000E+00
  0.000000E+00  1.718750E+01  0.000000E+00
  0.000000E+00  1.757812E+01  0.000000E+00
  0.000000E+00  1.796875E+01  0.000000E+00
  0.000000E+00  1.835938E+01  0.000000E+00
  0.000000E+00  1.875000E+01  0.000000E+00
  0.000000E+00  1.914062E+01  0.000000E+00
  0.000000E+00  1.953125E+01  0.000000E+00
  0.000000E+00  1.992188E+01  0.000000E+00
  0.000000E+00  2.031250E+01  0.000000E+00
  0.000000E+00  2.070312E+01  0.000000E+00
  0.000000E+00  2.109375E+01  0.000000E+00
  0.000000E+00  2.148438E+01  0.000000E+00
  0.000000E+00  2.187500E+01  0.000000E+00
  0.000000E+00  2.226562E+01  0.000000E+00
  0.000000E+00  2.265625E+01  0.000000E+00
  0.000000E+00  2.304688E+01  0.000000E+00
  0.000000E+00  2.343750E+01  0.000000E+00
  0.000000E+00  2.382812E+01  0.000000E+00
  0.000000E+00  2.421875E+01  0.000000E+00
  0.000000E+00  2.460938E+01  0.000000E+00
  3.906250E-01  0.000000E+00  0.000000E+00
  3.906250E-01  3.906250E-01  0.000000E+00
  3.906250E-01  7.812500E-01  0.000000E+00
  3.906250E-01  1.171875E+00  0.000000E+00
  3.906250E-01  1.562500E+00  0.000000E+00
  3.906250E-01  1.953125E+00  0.000000E+00
  3.906250E-01  2.343750E+00  0.000000E+00
  3.906250E-01  2.734375E+00  0.000000E+00
  3.906250E-01  3.125000E+00  0.000000E+00
  3.906250E-01  3.515625E+00  0.000000E+00
  3.906250E-01  3.906250E+00  0.000000E+00
  3.906250E-01  4.296875E+00  0.000000E+00
  3.906250E-01  4.687500E+00  0.000000E+00
  3.906250E-01  5.078125E+00  0.000000E+00
  3.906250E-01  5.468750E+00  0.000000E+00
  3.906250E-01  5.859375E+00  0.000000E+00
  3.906250E-01  6.250000E+00  0.000000E+00
  3.906250E-01  6.640625E+00  0.000000E+00
  3.906250E-01  7.031250E+00  0.000000E+00
  3.906250E-01  7.421875E+00  0.000000E+00
  3.906250E-01  7.812500E+00  0.000000E+00
  3.906250E-01  8.203125E+00  0.000000E+00
  3.906250E-01  8.593750E+00  0.000000E+00
  3.906250E-01  8.984375E+00  0.000000E+00
  3.906250E-01  9.375000E+00  0.000000E+00
  3.906250E-01  9.765625E+00  0.000000E+00
  3.906250E-01  1.015625E+01  0.000000E+00
  3.906250E-01  1.054688E+01  0.000000E+00
  3.906250E-01  1.093750E+01  0.000000E+00
  3.906250E-01  1.132812E+01  0.000000E+00
  3.906250E-01  1.171875E+01  0.000000E+00
  3.906250E-01  1.210938E+01  0.000000E+00
  3.906250E-01  1.250000E+01  0.000000E+00
  3.906250E-01  1.289062E+01  0.000000E+00
  3.906250E-01  1.328125E+01  0.000000E+00
  3.906250E-01  1.367188E+01  0.000000E+00
  3.906250E-01  1.406250E+01  0.000000E+00
  3.906250E-01  1.445312E+01  0.000000E+00
  3.906250E-01  1.484375E+01  0.000000E+00
  3.906250E-01  1.523438E+01  0.000000E+00
  3.906250E-01  1.562500E+01  0.000000E+00
  3.906250E-01  1.601562E+01  0.000000E+00
  3.906250E-01  1.640625E+01  0.000000E+00
  3.906250E-01  1.679688E+01  0.000000E+00
  3.906250E-01  1.718750E+01  0.000000E+00
  3.906250E-01  1.757812E+01  0.000000E+00
  3.906250E-01  1.796875E+01  0.000000E+00
  3.906250E-01  1.835938E+01  0.000000E+00
  3.906250E-01  1.875000E+01  0.000000E+00
  3.906250E-01  1.914062E+01  0.000000E+00
  3.906250E-01  1.953125E+01  0.000000E+00
  3.906250E-01  1.992188E+01  0.000000E+00
  3.906250E-01  2.031250E+01  0.000000E+00
  3.906250E-01  2.070312E+01  0.000000E+00
  3.906250E-01  2.109375E+01  0.000000E+00
  3.906250E-01  2.148438E+01  0.000000E+00
  3.906250E-01  2.187500E+01  0.000000E+00
  3.906250E-01  2.226562E+01  0.000000E+00
  3.906250E-01  2.265625E+01  0.000000E+00
  3.906250E-01  2.304688E+01  0.000000E+00
  3.906250E-01  2.343750E+01  0.000000E+00
  3.906250E-01  2.382812E+01  0.000000E+00
  3.906250E-01  2.421875E+01  0.000000E+00
  3.906250E-01  2.460938E+01  0.000000E+00
  7.812500E-01  0.000000E+00  0.000000E+00
  7.812500E-01  3.906250E-01  0.000000E+00
  7.812500E-01  7.812500E-01  0.000000E+00
  7.812500E-01  1.171875E+00  0.000000E+00
  7.812500E-01  1.562500E+00  0.000000E+00
  7.812500E-01  1.953125E+00  0.000000E+00
  7.812500E-01  2.343750E+00  0.000000E+00
  7.812500E-01  2.734375E+00  0.000000E+00
  7.812500E-01  3.125000E+00  0.000000E+00
  7.812500E-01  3.515625E+00  0.000000E+00
  7.812500E-01  3.906250E+00  0.000000E+00
  7.812500E-01  4.296875E+00  0.000000E+00
  7.812500E-01  4.687500E+00  0.000000E+00
  7.812500E-01  5.078125E+00  0.000000E+00
  7.812500E-01  5.468750E+00  0.000000E+00
  7.812500E-01  5.859375E+00  0.000000E+00
  7.812500E-01  6.250000E+00  0.000000E+00
  7.812500E-01  6.640625E+00  0.000000E+00
  7.812500E-01  7.031250E+00  0.000000E+00
  7.812500E-01  7.421875E+00  0.000000E+00
  7.812500E-01  7.812500E+00  0.000000E+00
  7.812500E-01  8.203125E+00  0.000000E+00
  7.812500E-01  8.593750E+00  0.000000E+00
  7.812500E-01  8.984375E+00  0.000000E+00
  7.812500E-01  9.375000E+00  0.000000E+00
  7.812500E-01  9.765625E+00  0.000000E+00
  7.812500E-01  1.015625E+01  0.000000E+00
  7.812500E-01  1.054688E+01  0.000000E+00
  7.812500E-01  1.093750E+01  0.000000E+00
  7.812500E-01  1.132812E+01  0.000000E+00
  7.812500E-01  1.171875E+01  0.000000E+00
  7.812500E-01  1.210938E+01  0.000000E+00
  7.812500E-01  1.250000E+01  0.000000E+00
  7.812500E-01  1.289062E+01  0.000000E+00
  7.812500E-01  1.328125E+01  0.000000E+00
  7.812500E-01  1.367188E+01  0.000000E+00
  7.812500E-01  1.406250E+01  0.000000E+00
  7.812500E-01  1.445312E+01  0.000000E+00
  7.812500E-01  1.484375E+01  0.000000E+00
  7.812500E-01  1.523438E+01  0.000000E+00
  7.812500E-01  1.562500E+01  0.000000E+00
  7.812500E-01  1.601562E+01  0.000000E+00
  7.812500E-01  1.640625E+01  0.000000E+00
  7.812500E-01  1.679688E+01  0.000000E+00
  7.812500E-01  1.718750E+01  0.000000E+00
  7.812500E-01  1.757812E+01  0.000000E+00
  7.812500E-01  1.796875E+01  0.000000E+00
  7.812500E-01  1.835938E+01  0.000000E+00
  7.812500E-01  1.875000E+01  0.000000E+00
  7.812500E-01  1.914062E+01  0.000000E+00
  7.812500E-01  1.953125E+01  0.000000E+00
  7.812500E-01  1.992188E+01  0.000000E+00
  7.812500E-01  2.031250E+01  0.000000E+00
  7.812500E-01  2.070312E+01  0.000000E+00
  7.812500E-01  2.109375E+01  0.000000E+00
  7.812500E-01  2.148438E+01  0.000000E+00
  7.812500E-01  2.187500E+01  0.000000E+00
  7.812500E-01  2.226562E+01  0.000000E+00
  7.812500E-01  2.265625E+01  0.000000E+00
  7.812500E-01  2.304688E+01  0.000000E+00
  7.812500E-01  2.343750E+01  0.000000E+00
  7.812500E-01  2.382812E+01  0.000000E+00
  7.812500E-01  2.421875E+01  0.000000E+00
  7.812500E-01  2.460938E+01  0.000000E+00
  1.171875E+00  0.000000E+00  0.000000E+00
  1.171875E+00  3.906250E-01  0.000000E+00
  1.171875E+00  7.812500E-01  0.000000E+00
  1.171875E+00  1.171875E+00  0.000000E+00
  1.171875E+00  1.562500E+00  0.000000E+00
  1.171875E+00  1.953125E+00  0.000000E+00
  1.171875E+00  2.343750E+00  0.000000E+00
  1.171875E+00  2.734375E+00  0.000000E+00
  1.171875E+00  3.125000E+00  0.000000E+00
  1.171875E+00  3.515625E+00  0.000000E+00
  1.171875E+00  3.906250E+00  0.000000E+00
  1.171875E+00  4.296875E+00  0.000000E+00
  1.171875E+00  4.687500E+00  0.000000E+00
  1.171875E+00  5.078125E+00  0.000000E+00
  1.171875E+00  5.468750E+00  0.000000E+00
  1.171875E+00  5.859375E+00  0.000000E+00
  1.171875E+00  6.250000E+00  0.000000E+00
  1.171875E+00  6.640625E+00  0.000000E+00
  1.171875E+00  7.031250E+00  0.000000E+00
  1.171875E+00  7.421875E+00  0.000000E+00
  1.171875E+00  7.812500E+00  0.000000E+00
  1.171875E+00  8.203125E+00  0.000000E+00
  1.171875E+00  8.593750E+00  0.000000E+00
  1.171875E+00  8.984375E+00  0.000000E+00
  1.171875E+00  9.375000E+00  0.000000E+00
  1.171875E+00  9.765625E+00  0.000000E+00
  1.171875E+00  1.015625E+01  0.000000E+00
  1.171875E+00  1.054688E+01  0.000000E+00
  1.171875E+00  1.093750E+01  0.000000E+00
  1.171875E+00  1.132812E+01  0.000000E+00
  1.171875E+00  1.171875E+01  0.000000E+00
  1.171875E+00  1.210938E+01  0.000000E+00
  1.171875E+00  1.250000E+01  0.000000E+00
  1.171875E+00  1.289062E+01  0.000000E+00
  1.171875E+00  1.328125E+01  0.000000E+00
  1.171875E+00  1.367188E+01  0.000000E+00
  1.171875E+00  1.406250E+01  0.000000E+00
  1.171875E+00  1.445312E+01  0.000000E+00
[...]
POINT_DATA   4096
SCALARS CON  float  1
LOOKUP_TABLE default
  4.694951E-01
  4.686455E-01
  4.713390E-01
  4.698314E-01
  4.715504E-01
  4.691999E-01
  4.705067E-01
  4.682086E-01
  4.698413E-01
  4.678804E-01
  4.696951E-01
  4.677711E-01
  4.696197E-01
  4.678755E-01
  4.700864E-01
  4.687711E-01
  4.712666E-01
  4.698988E-01
  4.719293E-01
  4.697634E-01
  4.708643E-01
  4.678858E-01
  4.685061E-01
  4.654991E-01
  4.665364E-01
  4.642598E-01
  4.661222E-01
  4.645329E-01
  4.667861E-01
  4.652703E-01
  4.673976E-01
  4.657420E-01
  4.678592E-01
  4.663400E-01
  4.686214E-01
  4.671145E-01
  4.691277E-01
  4.670760E-01
  4.684096E-01
  4.657596E-01
  4.667757E-01
  4.642052E-01
  4.657099E-01
  4.639559E-01
  4.664495E-01
  4.656419E-01
  4.687923E-01
  4.681341E-01
  4.708306E-01
  4.692249E-01
  4.708070E-01
  4.683607E-01
  4.697396E-01
  4.678222E-01
  4.702069E-01
  4.692614E-01
  4.720553E-01
  4.706759E-01
  4.723145E-01
  4.695382E-01
  4.701518E-01
  4.671780E-01
  4.685053E-01
  4.668361E-01
  4.713861E-01
  4.709497E-01
  4.724513E-01
  4.710216E-01
  4.713569E-01
  4.690575E-01
  4.691460E-01
  4.672675E-01
  4.682072E-01
  4.672264E-01
  4.687769E-01
  4.679920E-01
  4.694316E-01
  4.684717E-01
  4.698859E-01
  4.691046E-01
  4.707716E-01
  4.700899E-01
  4.715185E-01
  4.702284E-01
  4.708230E-01
  4.687294E-01
  4.688070E-01
  4.666397E-01
  4.670996E-01
  4.656524E-01
  4.669698E-01
  4.662951E-01
  4.681109E-01
  4.675494E-01
  4.690915E-01
  4.679829E-01
  4.689009E-01
  4.673015E-01
  4.680032E-01
  4.664758E-01
  4.674230E-01
  4.661332E-01
  4.671577E-01
  4.657434E-01
  4.665359E-01
  4.649665E-01
  4.658647E-01
  4.647493E-01
  4.663838E-01
  4.660767E-01
  4.683120E-01
  4.681656E-01
  4.700491E-01
  4.691837E-01
  4.703033E-01
  4.689923E-01
  4.702100E-01
  4.694971E-01
  4.714983E-01
  4.713116E-01
  4.732336E-01
  4.722942E-01
  4.730489E-01
  4.709971E-01
  4.711544E-01
  4.692598E-01
  4.702425E-01
  4.694719E-01
  4.679285E-01
  4.689594E-01
  4.703170E-01
  4.705504E-01
  4.706333E-01
  4.696910E-01
  4.691434E-01
  4.682502E-01
  4.682460E-01
  4.680352E-01
  4.685370E-01
  4.685312E-01
  4.690224E-01
  4.689822E-01
  4.695645E-01
  4.697459E-01
  4.705384E-01
  4.707163E-01
  4.711457E-01
  4.705956E-01
  4.700814E-01
  4.686215E-01
  4.674898E-01
  4.658828E-01
  4.651134E-01
  4.642672E-01
  4.644368E-01
  4.644566E-01
  4.652275E-01
  4.655164E-01
  4.662887E-01
  4.664529E-01
  4.671038E-01
  4.671928E-01
  4.677541E-01
  4.676253E-01
  4.677590E-01
  4.670132E-01
  4.664761E-01
  4.652091E-01
  4.644935E-01
  4.635021E-01
  4.635090E-01
  4.635620E-01
  4.647178E-01
  4.657568E-01
  4.674778E-01
  4.684881E-01
  4.695773E-01
  4.695514E-01
  4.695743E-01
  4.688763E-01
  4.689114E-01
  4.689088E-01
  4.699892E-01
  4.708390E-01
  4.720707E-01
  4.721498E-01
  4.718895E-01
  4.703134E-01
  4.689117E-01
  4.671990E-01
  4.667432E-01
  4.666844E-01
  4.693946E-01
  4.708451E-01
  4.708009E-01
  4.711541E-01
  4.697459E-01
  4.690118E-01
  4.672184E-01
  4.669239E-01
  4.661709E-01
  4.670683E-01
  4.672085E-01
  4.684598E-01
  4.684695E-01
  4.693793E-01
  4.691437E-01
  4.700620E-01
  4.700178E-01
  4.710725E-01
  4.708601E-01
  4.713342E-01
  4.702304E-01
  4.697664E-01
  4.679812E-01
  4.673074E-01
  4.658383E-01
  4.659029E-01
  4.653876E-01
  4.663805E-01
  4.665527E-01
  4.678475E-01
  4.678938E-01
  4.687104E-01
  4.681030E-01
  4.683115E-01
  4.673214E-01
  4.674362E-01
  4.665676E-01
  4.668582E-01
  4.660693E-01
  4.662950E-01
  4.653807E-01
  4.655873E-01
  4.649108E-01
  4.656499E-01
  4.656858E-01
  4.670870E-01
  4.674860E-01
  4.687988E-01
  4.686835E-01
  4.692695E-01
  4.685400E-01
  4.689210E-01
  4.685176E-01
  4.696231E-01
  4.699924E-01
  4.715037E-01
  4.716305E-01
  4.722511E-01
  4.711378E-01
  4.706430E-01
  4.689837E-01
  4.687354E-01
  4.680206E-01
  4.690372E-01
  4.658386E-01
  4.684323E-01
  4.683127E-01
  4.701164E-01
  4.686987E-01
  4.692712E-01
  4.671709E-01
  4.677949E-01
  4.663247E-01
  4.677862E-01
  4.669868E-01
  4.687583E-01
  4.679532E-01
  4.696067E-01
  4.687765E-01
  4.705667E-01
  4.699257E-01
  4.717379E-01
  4.707528E-01
  4.717966E-01
  4.697491E-01
  4.697128E-01
  4.668816E-01
  4.665904E-01
  4.641001E-01
  4.646303E-01
  4.631970E-01
  4.647409E-01
  4.640643E-01
  4.660230E-01
  4.654651E-01
  4.673674E-01
  4.666926E-01
  4.684604E-01
  4.675919E-01
  4.690247E-01
  4.676308E-01
  4.683912E-01
  4.663245E-01
  4.666144E-01
  4.644585E-01
  4.651215E-01
  4.637465E-01
  4.654196E-01
  4.650312E-01
  4.674098E-01
  4.672532E-01
  4.693207E-01
  4.683986E-01
  4.694884E-01
  4.677141E-01
  4.683997E-01
  4.668435E-01
  4.682970E-01
  4.677331E-01
  4.699370E-01
  4.694711E-01
  4.709627E-01
  4.691693E-01
  4.692109E-01
  4.664376E-01
  4.664051E-01
  4.645423E-01
  4.660778E-01
  4.675275E-01
  4.699483E-01
  4.687838E-01
  4.702862E-01
  4.679472E-01
  4.684814E-01
  4.657763E-01
  4.666948E-01
  4.649546E-01
  4.670152E-01
  4.661586E-01
  4.685885E-01
  4.676184E-01
  4.697157E-01
  4.685096E-01
  4.706382E-01
  4.696582E-01
  4.719452E-01
  4.707693E-01
  4.723756E-01
  4.701477E-01
  4.706420E-01
  4.676065E-01
  4.678562E-01
  4.651990E-01
  4.663148E-01
  4.647569E-01
  4.669256E-01
  4.661438E-01
  4.686723E-01
  4.678029E-01
  4.698762E-01
  4.683552E-01
  4.697924E-01
  4.678287E-01
  4.690910E-01
  4.671678E-01
  4.685504E-01
  4.666983E-01
  4.680614E-01
  4.661679E-01
  4.675951E-01
  4.659641E-01
  4.678356E-01
  4.666930E-01
  4.688973E-01
  4.677684E-01
  4.696250E-01
  4.678981E-01
  4.691370E-01
  4.670331E-01
  4.683150E-01
  4.666858E-01
  4.686961E-01
  4.677437E-01
  4.700728E-01
  4.689103E-01
  4.705481E-01
  4.684662E-01
  4.693124E-01
  4.668806E-01
  4.679668E-01
  4.662884E-01
  4.683638E-01
  4.643874E-01
  4.672514E-01
  4.665564E-01
  4.689993E-01
  4.673993E-01
  4.688791E-01
  4.666558E-01
  4.680448E-01
  4.661892E-01
  4.681406E-01
  4.667537E-01
  4.689249E-01
  4.675476E-01
  4.696900E-01
  4.684126E-01
  4.708172E-01
  4.698218E-01
  4.722785E-01
  4.708886E-01
  4.724530E-01
  4.698417E-01
  4.701925E-01
  4.667479E-01
  4.669040E-01
  4.639495E-01
  4.651070E-01
  4.633531E-01
  4.655884E-01
  4.645739E-01
  4.671583E-01
  4.661934E-01
  4.686795E-01
  4.675858E-01
  4.699358E-01
  4.686315E-01
  4.706016E-01
  4.687079E-01
  4.699499E-01
  4.673670E-01
  4.681779E-01
  4.655892E-01
  4.668575E-01
  4.650740E-01
  4.672657E-01
  4.662583E-01
  4.688627E-01
  4.677999E-01
  4.699100E-01
  4.680656E-01
  4.693418E-01
  4.668700E-01
  4.679338E-01
  4.657488E-01
  4.675095E-01
  4.661758E-01
  4.685973E-01
  4.674296E-01
  4.693938E-01
  4.672682E-01
  4.681218E-01
  4.651782E-01
  4.658663E-01
  4.635257E-01
  4.653953E-01
  4.665177E-01
  4.685972E-01
  4.674151E-01
  4.691002E-01
  4.672827E-01
  4.683612E-01
  4.662432E-01
  4.674738E-01
  4.658943E-01
  4.678015E-01
  4.667421E-01
  4.688372E-01
  4.676712E-01
  4.695793E-01
  4.683868E-01
  4.705275E-01
  4.697002E-01
  4.720471E-01
  4.709804E-01
  4.725412E-01
  4.703090E-01
  4.706979E-01
  4.676969E-01
  4.679838E-01
  4.655641E-01
  4.669043E-01
  4.656801E-01
  4.680402E-01
  4.674468E-01
  4.699704E-01
  4.691169E-01
  4.710883E-01
  4.695689E-01
  4.709400E-01
  4.690147E-01
  4.702128E-01
  4.682916E-01
  4.695628E-01
  4.676935E-01
  4.689794E-01
  4.671499E-01
  4.685876E-01
  4.670587E-01
  4.688860E-01
  4.676940E-01
  4.696503E-01
  4.682927E-01
  4.698215E-01
  4.679211E-01
  4.689956E-01
  4.669091E-01
  4.681486E-01
  4.665267E-01
  4.683597E-01
  4.672346E-01
  4.692764E-01
  4.679923E-01
  4.695684E-01
  4.676847E-01
  4.687408E-01
  4.665933E-01
  4.677274E-01
  4.659743E-01
  4.676927E-01
  4.637323E-01
  4.658818E-01
  4.655672E-01
  4.678906E-01
  4.672642E-01
  4.690109E-01
  4.678103E-01
  4.691728E-01
  4.678177E-01
  4.691705E-01
  4.678326E-01
  4.691762E-01
  4.678531E-01
  4.693457E-01
  4.683765E-01
  4.703698E-01
  4.698449E-01
  4.719553E-01
  4.710182E-01
  4.721773E-01
  4.699733E-01
  4.699366E-01
  4.670059E-01
  4.669560E-01
  4.647162E-01
  4.658093E-01
  4.647839E-01
  4.668158E-01
  4.662728E-01
  4.683604E-01
  4.676297E-01
  4.694996E-01
  4.686450E-01
  4.704631E-01
  4.694945E-01
  4.709890E-01
  4.694340E-01
  4.701756E-01
  4.679210E-01
  4.682657E-01
  4.660814E-01
  4.669668E-01
  4.656322E-01
  4.674157E-01
  4.667671E-01
  4.688516E-01
  4.680751E-01
  4.696804E-01
  4.682348E-01
  4.691770E-01
  4.672595E-01
  4.680551E-01
  4.663619E-01
  4.676844E-01
  4.666403E-01
  4.684859E-01
  4.676059E-01
  4.691335E-01
  4.675066E-01
  4.680887E-01
  4.656526E-01
  4.658770E-01
  4.637037E-01
  4.647607E-01
  4.661238E-01
  4.674007E-01
  4.667448E-01
  4.681788E-01
  4.674312E-01
  4.686068E-01
  4.675873E-01
  4.686147E-01
  4.676114E-01
  4.687465E-01
  4.678187E-01
  4.689252E-01
  4.679129E-01
  4.690255E-01
  4.682477E-01
  4.698284E-01
  4.695718E-01
  4.714270E-01
  4.709381E-01
  4.719963E-01
  4.703562E-01
  4.703111E-01
  4.680298E-01
  4.680436E-01
  4.664854E-01
  4.676116E-01
  4.671759E-01
  4.691091E-01
  4.689960E-01
  4.707745E-01
  4.701640E-01
  4.712912E-01
  4.700552E-01
  4.707104E-01
  4.692115E-01
  4.697948E-01
  4.683425E-01
  4.690063E-01
  4.676179E-01
  4.683396E-01
  4.670615E-01
  4.680028E-01
  4.670550E-01
  4.683609E-01
  4.676864E-01
  4.690617E-01
  4.682141E-01
  4.692351E-01
  4.679905E-01
  4.687309E-01
  4.674378E-01
  4.683873E-01
  4.674853E-01
  4.688592E-01
  4.682501E-01
  4.696696E-01
  4.688347E-01
  4.698268E-01
  4.684901E-01
  4.690371E-01
  4.674086E-01
  4.678685E-01
  4.663708E-01
  4.671586E-01
  4.635873E-01
  4.650664E-01
  4.651935E-01
  4.672394E-01
  4.674589E-01
  4.691948E-01
  4.688612E-01
  4.699698E-01
  4.690562E-01
  4.696943E-01
  4.684494E-01
  4.689316E-01
  4.677615E-01
  4.685915E-01
  4.680148E-01
  4.695439E-01
  4.695308E-01
  4.712255E-01
  4.708134E-01
  4.715731E-01
  4.699379E-01
  4.695775E-01
  4.673099E-01
  4.670226E-01
  4.654895E-01
  4.663119E-01
  4.658623E-01
  4.674021E-01
  4.671649E-01
  4.685095E-01
  4.679202E-01
  4.690077E-01
  4.683725E-01
  4.695547E-01
  4.689577E-01
  4.699288E-01
  4.688089E-01
  4.690643E-01
  4.672868E-01
  4.672068E-01
  4.655679E-01
  4.660727E-01
  4.652759E-01
  4.666166E-01
  4.664174E-01
  4.679922E-01
  4.676644E-01
  4.688460E-01
  4.680064E-01
  4.687077E-01
  4.675452E-01
  4.681636E-01
  4.671800E-01
  4.681833E-01
  4.676549E-01
  4.689960E-01
  4.685079E-01
  4.694918E-01
  4.682856E-01
  4.683712E-01
  4.663609E-01
  4.660125E-01
  4.641140E-01
  4.644314E-01
  4.663169E-01
  4.671393E-01
  4.667219E-01
  4.678524E-01
  4.675528E-01
  4.685931E-01
  4.680571E-01
  4.688175E-01
  4.680414E-01
  4.686295E-01
  4.677353E-01
  4.682546E-01
  4.673859E-01
  4.681080E-01
  4.676719E-01
  4.689983E-01
  4.691412E-01
  4.707473E-01
  4.706536E-01
  4.714796E-01
  4.702759E-01
  4.700447E-01
  4.682236E-01
  4.680330E-01
  4.668680E-01
  4.676782E-01
  4.674917E-01
  4.689509E-01
  4.689411E-01
  4.701433E-01
  4.696036E-01
  4.701992E-01
  4.691375E-01
  4.693862E-01
  4.681707E-01
  4.684226E-01
  4.673038E-01
  4.676861E-01
  4.667009E-01
  4.672270E-01
  4.664247E-01
  4.671906E-01
  4.666614E-01
  4.676651E-01
  4.672541E-01
  4.682027E-01
  4.675772E-01
  4.682371E-01
  4.673740E-01
  4.679604E-01
  4.672399E-01
  4.681509E-01
  4.678248E-01
  4.690497E-01
  4.688269E-01
  4.698883E-01
  4.692754E-01
  4.698366E-01
  4.687508E-01
  4.689675E-01
  4.677029E-01
  4.678945E-01
  4.667339E-01
  4.671463E-01
  4.642558E-01
  4.654360E-01
  4.656172E-01
  4.672455E-01
  4.675246E-01
  4.689207E-01
  4.687183E-01
  4.694962E-01
  4.686576E-01
  4.688919E-01
  4.677001E-01
  4.678503E-01
  4.668884E-01
  4.675688E-01
  4.673413E-01
  4.687786E-01
  4.690959E-01
  4.706472E-01
  4.705309E-01
  4.711524E-01
  4.698410E-01
  4.693512E-01
  4.673579E-01
  4.668224E-01
  4.653993E-01
  4.658082E-01
  4.653469E-01
  4.664223E-01
  4.661980E-01
  4.671648E-01
  4.667125E-01
  4.675537E-01
  4.671640E-01
  4.681649E-01
  4.678320E-01
  4.686132E-01
  4.677566E-01
  4.678610E-01
  4.664344E-01
  4.663151E-01
  4.651122E-01
  4.655832E-01
  4.651201E-01
  4.662302E-01
  4.661271E-01
  4.672673E-01
  4.669329E-01
  4.677155E-01
  4.670359E-01
  4.675865E-01
  4.668377E-01
  4.674853E-01
  4.669652E-01
  4.679032E-01
  4.676344E-01
  4.686704E-01
  4.682541E-01
  4.688695E-01
  4.678251E-01
  4.677589E-01
  4.661780E-01
  4.658966E-01
  4.645122E-01
  4.648112E-01
  4.675541E-01
  4.680773E-01
  4.676466E-01
  4.681270E-01
  4.676520E-01
  4.680558E-01
  4.674645E-01
  4.677364E-01
  4.670358E-01
  4.672502E-01
  4.665585E-01
  4.668637E-01
  4.663754E-01
  4.670322E-01
  4.670459E-01
  4.682782E-01
  4.687724E-01
  4.701781E-01
  4.703784E-01
  4.710117E-01
  4.701391E-01
  4.697168E-01
  4.681397E-01
  4.675752E-01
  4.664231E-01
  4.666599E-01
  4.663928E-01
  4.673281E-01
  4.674176E-01
  4.683523E-01
  4.681722E-01
  4.686977E-01
  4.680882E-01
  4.682493E-01
  4.673902E-01
  4.674384E-01
  4.666025E-01
  4.667919E-01
  4.661854E-01
  4.666555E-01
  4.663383E-01
  4.670547E-01
  4.668815E-01
  4.675862E-01
  4.672242E-01
  4.675996E-01
  4.668675E-01
  4.669693E-01
  4.661844E-01
  4.665114E-01
  4.661879E-01
  4.670761E-01
  4.672260E-01
  4.683291E-01
  4.683494E-01
  4.690174E-01
  4.684514E-01
  4.685904E-01
  4.677268E-01
  4.678656E-01
  4.672368E-01
  4.676989E-01
  4.673339E-01
  4.679214E-01
  4.660283E-01
  4.667377E-01
  4.669788E-01
  4.676463E-01
  4.677259E-01
  4.681451E-01
  4.679094E-01
  4.679666E-01
  4.673650E-01
  4.671284E-01
  4.664003E-01
  4.662853E-01
  4.659549E-01
  4.664633E-01
  4.668539E-01
  4.680027E-01
  4.687690E-01
  4.698887E-01
  4.701682E-01
  4.704048E-01
  4.695826E-01
  4.687595E-01
  4.671925E-01
  4.661329E-01
  4.648756E-01
  4.645341E-01
  4.641465E-01
  4.645649E-01
  4.646754E-01
  4.653360E-01
  4.655531E-01
  4.663119E-01
  4.666524E-01
  4.674730E-01
  4.676713E-01
  4.680604E-01
  4.675956E-01
  4.672916E-01
  4.663592E-01
  4.659945E-01
  4.654210E-01
  4.656704E-01
  4.657050E-01
  4.663208E-01
  4.663709E-01
  4.667023E-01
  4.663373E-01
  4.663216E-01
  4.658189E-01
  4.659129E-01
  4.657072E-01
  4.661693E-01
  4.662825E-01
  4.669251E-01
  4.670358E-01
  4.674912E-01
  4.672661E-01
  4.673080E-01
  4.666908E-01
  4.664697E-01
  4.658020E-01
  4.657682E-01
  4.654768E-01
  4.659017E-01
  4.696698E-01
  4.694448E-01
  4.692408E-01
  4.684664E-01
  4.679453E-01
  4.670808E-01
  4.666387E-01
  4.659550E-01
  4.657455E-01
  4.653199E-01
  4.653858E-01
  4.652572E-01
  4.656535E-01
  4.658978E-01
  4.666974E-01
  4.673229E-01
  4.683835E-01
  4.690304E-01
  4.697816E-01
  4.697819E-01
  4.696586E-01
  4.687627E-01
  4.679586E-01
  4.667782E-01
  4.661449E-01
  4.655123E-01
  4.656294E-01
  4.657498E-01
  4.664596E-01
  4.669180E-01
  4.676826E-01
  4.679346E-01
  4.682914E-01
  4.680266E-01
  4.678761E-01
  4.672374E-01
  4.669420E-01
  4.664236E-01
  4.664757E-01
  4.664291E-01
  4.669371E-01
  4.671877E-01
  4.677258E-01
  4.676984E-01
  4.677008E-01
  4.670238E-01
  4.664694E-01
  4.655336E-01
  4.651453E-01
  4.647911E-01
  4.652422E-01
  4.657266E-01
  4.667448E-01
  4.673415E-01
  4.679940E-01
  4.678983E-01
  4.678063E-01
  4.672080E-01
  4.670510E-01
  4.668414E-01
  4.673564E-01
  4.678196E-01
  4.687357E-01
  4.691776E-01
  4.681689E-01
  4.678690E-01
  4.685088E-01
  4.677633E-01
  4.680299E-01
  4.670462E-01
  4.671944E-01
  4.661571E-01
  4.662786E-01
  4.652579E-01
  4.655016E-01
  4.647703E-01
  4.654787E-01
  4.653187E-01
  4.665783E-01
  4.668120E-01
  4.682075E-01
  4.682799E-01
  4.692347E-01
  4.686490E-01
  4.688264E-01
  4.674757E-01
  4.670549E-01
  4.654131E-01
  4.650824E-01
  4.638803E-01
  4.642073E-01
  4.637081E-01
  4.646466E-01
  4.646149E-01
  4.658941E-01
  4.661008E-01
  4.674892E-01
  4.675926E-01
  4.685866E-01
  4.680162E-01
  4.682060E-01
  4.669516E-01
  4.668213E-01
  4.657246E-01
  4.661451E-01
  4.657387E-01
  4.666799E-01
  4.664011E-01
  4.670375E-01
  4.661766E-01
  4.662249E-01
  4.650316E-01
  4.651444E-01
  4.643857E-01
  4.651375E-01
  4.650003E-01
  4.661696E-01
  4.661541E-01
  4.671610E-01
  4.667858E-01
  4.673570E-01
  4.665927E-01
  4.669256E-01
  4.661417E-01
  4.666849E-01
  4.662798E-01
  4.672417E-01
  4.671395E-01
  4.714735E-01
  4.701338E-01
  4.704106E-01
  4.683054E-01
  4.681637E-01
  4.660089E-01
  4.661136E-01
  4.643863E-01
  4.649920E-01
  4.637641E-01
  4.648272E-01
  4.639976E-01
  4.653935E-01
  4.648293E-01
  4.664220E-01
  4.659818E-01
  4.676135E-01
  4.671051E-01
  4.685371E-01
  4.676894E-01
  4.686706E-01
  4.673346E-01
  4.678974E-01
  4.663202E-01
  4.668887E-01
  4.655712E-01
  4.665968E-01
  4.658329E-01
  4.673884E-01
  4.670126E-01
  4.687159E-01
  4.681889E-01
  4.694481E-01
  4.682728E-01
  4.688438E-01
  4.671386E-01
  4.675037E-01
  4.659880E-01
  4.668838E-01
  4.660742E-01
  4.676253E-01
  4.672005E-01
  4.687184E-01
  4.678160E-01
  4.685262E-01
  4.667205E-01
  4.667235E-01
  4.646605E-01
  4.649776E-01
  4.637360E-01
  4.651454E-01
  4.649378E-01
  4.670169E-01
  4.669394E-01
  4.686232E-01
  4.678191E-01
  4.687458E-01
  4.674509E-01
  4.683360E-01
  4.674478E-01
  4.690039E-01
  4.687568E-01
  4.706365E-01
  4.702280E-01
  4.693313E-01
  4.680716E-01
  4.691150E-01
  4.674126E-01
  4.681087E-01
  4.662360E-01
  4.669274E-01
  4.651445E-01
  4.659548E-01
  4.643093E-01
  4.653176E-01
  4.639777E-01
  4.653961E-01
  4.644974E-01
  4.662740E-01
  4.655555E-01
  4.673049E-01
  4.663916E-01
  4.678516E-01
  4.666154E-01
  4.677489E-01
  4.661984E-01
  4.670618E-01
  4.653427E-01
  4.661980E-01
  4.646524E-01
  4.658251E-01
  4.646639E-01
  4.662151E-01
  4.653899E-01
  4.672255E-01
  4.666117E-01
  4.685200E-01
  4.677449E-01
  4.691986E-01
  4.677259E-01
  4.684251E-01
  4.664063E-01
  4.669916E-01
  4.653539E-01
  4.666670E-01
  4.657963E-01
  4.675839E-01
  4.666896E-01
  4.679688E-01
  4.663038E-01
  4.668769E-01
  4.648569E-01
  4.655551E-01
  4.640762E-01
  4.655260E-01
  4.647668E-01
  4.667237E-01
  4.661870E-01
  4.681055E-01
  4.673413E-01
  4.689210E-01
  4.677773E-01
  4.690099E-01
  4.676308E-01
  4.688033E-01
  4.675473E-01
  4.689515E-01
  4.678966E-01
  4.718284E-01
  4.699652E-01
  4.703878E-01
  4.679602E-01
  4.681076E-01
  4.657219E-01
  4.661692E-01
  4.642346E-01
  4.651779E-01
  4.637092E-01
  4.650502E-01
  4.638984E-01
  4.654728E-01
  4.644705E-01
  4.661158E-01
  4.651218E-01
  4.667378E-01
  4.657013E-01
  4.672733E-01
  4.661866E-01
  4.676902E-01
  4.665129E-01
  4.679181E-01
  4.666652E-01
  4.680508E-01
  4.668549E-01
  4.683727E-01
  4.673588E-01
  4.690606E-01
  4.681641E-01
  4.698383E-01
  4.687058E-01
  4.699232E-01
  4.681829E-01
  4.687944E-01
  4.666449E-01
  4.672078E-01
  4.654329E-01
  4.667195E-01
  4.658218E-01
  4.678812E-01
  4.674109E-01
  4.694036E-01
  4.683668E-01
  4.694423E-01
  4.674058E-01
  4.677070E-01
  4.653690E-01
  4.659419E-01
  4.643676E-01
  4.659660E-01
  4.653859E-01
  4.676928E-01
  4.673955E-01
  4.695625E-01
  4.688275E-01
  4.704520E-01
  4.692641E-01
  4.706593E-01
  4.694984E-01
  4.710987E-01
  4.701622E-01
  4.718285E-01
  4.706759E-01
  4.688825E-01
  4.677278E-01
  4.685195E-01
  4.672651E-01
  4.679480E-01
  4.666434E-01
  4.673317E-01
  4.660339E-01
  4.666864E-01
  4.653269E-01
  4.659675E-01
  4.647283E-01
  4.656446E-01
  4.647727E-01
  4.660270E-01
  4.653540E-01
  4.666285E-01
  4.658388E-01
  4.669451E-01
  4.660085E-01
  4.670179E-01
  4.660265E-01
  4.670093E-01
  4.660206E-01
  4.670444E-01
  4.661291E-01
  4.672280E-01
  4.663538E-01
  4.674526E-01
  4.665728E-01
  4.677127E-01
  4.669350E-01
  4.681767E-01
  4.673820E-01
  4.683868E-01
  4.671387E-01
  4.676185E-01
  4.660101E-01
  4.665043E-01
  4.653474E-01
  4.665914E-01
  4.661926E-01
  4.678930E-01
  4.674639E-01
  4.686709E-01
  4.674992E-01
  4.680118E-01
  4.664386E-01
  4.669396E-01