# vtk DataFile Version 2.0
title
ASCII
DATASET STRUCTURED_GRID
DIMENSIONS   64   64    1
POINTS   4096  float
  0.000000E+00  0.000000E+00  0.000000E+00
  0.000000E+00  3.906250E-01  0.000000E+00
  0.000000E+00  7.812500E-01  0.000000E+00
  0.000000E+00  1.171875E+00  0.000000E+00
  0.000000E+00  1.562500E+00  0.000000E+00
  0.000000E+00  1.953125E+00  0.000000E+00
  0.000000E+00  2.343750E+00  0.000000E+00
  0.000000E+00  2.734375E+00  0.000000E+00
  0.000000E+00  3.125000E+00  0.000000E+00
  0.000000E+00  3.515625E+00  0.000000E+00
  0.000000E+00  3.906250E+00  0.000000E+00
  0.000000E+00  4.296875E+00  0.000000E+00
  0.000000E+00  4.687500E+00  0.000000E+00
  0.000000E+00  5.078125E+00  0.000000E+00
  0.000000E+00  5.468750E+00  0.000000E+00
  0.000000E+00  5.859375E+00  0.000000E+00
  0.000000E+00  6.250000E+00  0.000000E+00
  0.000000E+00  6.640625E+00  0.000000E+00
  0.000000E+00  7.031250E+00  0.000000E+00
  0.000000E+00  7.421875E+00  0.000000E+00
  0.000000E+00  7.812500E+00  0.000000E+00
  0.000000E+00  8.203125E+00  0.000000E+00
  0.000000E+00  8.593750E+00  0.000000E+00
  0.000000E+00  8.984375E+00  0.000000E+00
  0.000000E+00  9.375000E+00  0.000000E+00
  0.000000E+00  9.765625E+00  0.000000E+00
  0.000000E+00  1.015625E+01  0.000000E+00
  0.000000E+00  1.054688E+01  0.000000E+00
  0.000000E+00  1.093750E+01  0.000000E+00
  0.000000E+00  1.132812E+01  0.000000E+00
  0.000000E+00  1.171875E+01  0.000000E+00
  0.000000E+00  1.210938E+01  0.000000E+00
  0.000000E+00  1.250000E+01  0.000000E+00
  0.000000E+00  1.289062E+01  0.000000E+00
  0.000000E+00  1.328125E+01  0.000000E+00
  0.000000E+00  1.367188E+01  0.000000E+00
  0.000000E+00  1.406250E+01  0.000000E+00
  0.000000E+00  1.445312E+01  0.000000E+00
  0.000000E+00  1.484375E+01  0.000000E+00
  0.000000E+00  1.523438E+01  0.000000E+00
  0.000000E+00  1.562500E+01  0.000000E+00
  0.000000E+00  1.601562E+01  0.000000E+00
  0.000000E+00  1.640625E+01  0.000000E+00
  0.000000E+00  1.679688E+01  0.000000E+00
  0.000000E+00  1.718750E+01  0.000000E+00
  0.000000E+00  1.757812E+01  0.000000E+00
  0.000000E+00  1.796875E+01  0.000000E+00
  0.000000E+00  1.835938E+01  0.000000E+00
  0.000000E+00  1.875000E+01  0.000000E+00
  0.000000E+00  1.914062E+01  0.000000E+00
  0.000000E+00  1.953125E+01  0.000000E+00
  0.000000E+00  1.992188E+01  0.000000E+00
  0.000000E+00  2.031250E+01  0.000000E+00
  0.000000E+00  2.070312E+01  0.000000E+00
  0.000000E+00  2.109375E+01  0.000000E+00
  0.000000E+00  2.148438E+01  0.000000E+00
  0.000000E+00  2.187500E+01  0.000000E+00
  0.000000E+00  2.226562E+01  0.000000E+00
  0.000000E+00  2.265625E+01  0.000000E+00
  0.000000E+00  2.304688E+01  0.000000E+00
  0.000000E+00  2.343750E+01  0.000000E+00
  0.000000E+00  2.382812E+01  0.000000E+00
  0.000000E+00  2.421875E+01  0.000000E+00
  0.000000E+00  2.460938E+01  0.000000E+00
  3.906250E-01  0.000000E+00  0.000000E+00
  3.906250E-01  3.906250E-01  0.000000E+00
  3.906250E-01  7.812500E-01  0.000000E+00
  3.906250E-01  1.171875E+00  0.000000E+00
  3.906250E-01  1.562500E+00  0.000000E+00
  3.906250E-01  1.953125E+00  0.000000E+00
  3.906250E-01  2.343750E+00  0.000000E+00
  3.906250E-01  2.734375E+00  0.000000E+00
  3.906250E-01  3.125000E+00  0.000000E+00
  3.906250E-01  3.515625E+00  0.000000E+00
  3.906250E-01  3.906250E+00  0.000000E+00
  3.906250E-01  4.296875E+00  0.000000E+00
  3.906250E-01  4.687500E+00  0.000000E+00
  3.906250E-01  5.078125E+00  0.000000E+00
  3.906250E-01  5.468750E+00  0.000000E+00
  3.906250E-01  5.859375E+00  0.000000E+00
  3.906250E-01  6.250000E+00  0.000000E+00
  3.906250E-01  6.640625E+00  0.000000E+00
  3.906250E-01  7.031250E+00  0.000000E+00
  3.906250E-01  7.421875E+00  0.000000E+00
  3.906250E-01  7.812500E+00  0.000000E+00
  3.906250E-01  8.203125E+00  0.000000E+00
  3.906250E-01  8.593750E+00  0.000000E+00
  3.906250E-01  8.984375E+00  0.000000E+00
  3.906250E-01  9.375000E+00  0.000000E+00
  3.906250E-01  9.765625E+00  0.000000E+00
  3.906250E-01  1.015625E+01  0.000000E+00
  3.906250E-01  1.054688E+01  0.000000E+00
  3.906250E-01  1.093750E+01  0.000000E+00
  3.906250E-01  1.132812E+01  0.000000E+00
  3.906250E-01  1.171875E+01  0.000000E+00
  3.906250E-01  1.210938E+01  0.000000E+00
  3.906250E-01  1.250000E+01  0.000000E+00
  3.906250E-01  1.289062E+01  0.000000E+00
  3.906250E-01  1.328125E+01  0.000000E+00
  3.906250E-01  1.367188E+01  0.000000E+00
  3.906250E-01  1.406250E+01  0.000000E+00
  3.906250E-01  1.445312E+01  0.000000E+00
  3.906250E-01  1.484375E+01  0.000000E+00
  3.906250E-01  1.523438E+01  0.000000E+00
  3.906250E-01  1.562500E+01  0.000000E+00
  3.906250E-01  1.601562E+01  0.000000E+00
  3.906250E-01  1.640625E+01  0.000000E+00
  3.906250E-01  1.679688E+01  0.000000E+00
  3.906250E-01  1.718750E+01  0.000000E+00
  3.906250E-01  1.757812E+01  0.000000E+00
  3.906250E-01  1.796875E+01  0.000000E+00
  3.906250E-01  1.835938E+01  0.000000E+00
  3.906250E-01  1.875000E+01  0.000000E+00
  3.906250E-01  1.914062E+01  0.000000E+00
  3.906250E-01  1.953125E+01  0.000000E+00
  3.906250E-01  1.992188E+01  0.000000E+00
  3.906250E-01  2.031250E+01  0.000000E+00
  3.906250E-01  2.070312E+01  0.000000E+00
  3.906250E-01  2.109375E+01  0.000000E+00
  3.906250E-01  2.148438E+01  0.000000E+00
  3.906250E-01  2.187500E+01  0.000000E+00
  3.906250E-01  2.226562E+01  0.000000E+00
  3.906250E-01  2.265625E+01  0.000000E+00
  3.906250E-01  2.304688E+01  0.000000E+00
  3.906250E-01  2.343750E+01  0.000000E+00
  3.906250E-01  2.382812E+01  0.000000E+00
  3.906250E-01  2.421875E+01  0.000000E+00
  3.906250E-01  2.460938E+01  0.000000E+00
  7.812500E-01  0.000000E+00  0.000000E+00
  7.812500E-01  3.906250E-01  0.000000E+00
  7.812500E-01  7.812500E-01  0.000000E+00
  7.812500E-01  1.171875E+00  0.000000E+00
  7.812500E-01  1.562500E+00  0.000000E+00
  7.812500E-01  1.953125E+00  0.000000E+00
  7.812500E-01  2.343750E+00  0.000000E+00
  7.812500E-01  2.734375E+00  0.000000E+00
  7.812500E-01  3.125000E+00  0.000000E+00
  7.812500E-01  3.515625E+00  0.000000E+00
  7.812500E-01  3.906250E+00  0.000000E+00
  7.812500E-01  4.296875E+00  0.000000E+00
  7.812500E-01  4.687500E+00  0.000000E+00
  7.812500E-01  5.078125E+00  0.000000E+00
  7.812500E-01  5.468750E+00  0.000000E+00
  7.812500E-01  5.859375E+00  0.000000E+00
  7.812500E-01  6.250000E+00  0.000000E+00
  7.812500E-01  6.640625E+00  0.000000E+00
  7.812500E-01  7.031250E+00  0.000000E+00
  7.812500E-01  7.421875E+00  0.000000E+00
  7.812500E-01  7.812500E+00  0.000000E+00
  7.812500E-01  8.203125E+00  0.000000E+00
  7.812500E-01  8.593750E+00  0.000000E+00
  7.812500E-01  8.984375E+00  0.000000E+00
  7.812500E-01  9.375000E+00  0.000000E+00
  7.812500E-01  9.765625E+00  0.000000E+00
  7.812500E-01  1.015625E+01  0.000000E+00
  7.812500E-01  1.054688E+01  0.000000E+00
  7.812500E-01  1.093750E+01  0.000000E+00
  7.812500E-01  1.132812E+01  0.000000E+00
  7.812500E-01  1.171875E+01  0.000000E+00
  7.812500E-01  1.210938E+01  0.000000E+00
  7.812500E-01  1.250000E+01  0.000000E+00
  7.812500E-01  1.289062E+01  0.000000E+00
  7.812500E-01  1.328125E+01  0.000000E+00
  7.812500E-01  1.367188E+01  0.000000E+00
  7.812500E-01  1.406250E+01  0.000000E+00
  7.812500E-01  1.445312E+01  0.000000E+00
  7.812500E-01  1.484375E+01  0.000000E+00
  7.812500E-01  1.523438E+01  0.000000E+00
  7.812500E-01  1.562500E+01  0.000000E+00
  7.812500E-01  1.601562E+01  0.000000E+00
  7.812500E-01  1.640625E+01  0.000000E+00
  7.812500E-01  1.679688E+01  0.000000E+00
  7.812500E-01  1.718750E+01  0.000000E+00
  7.812500E-01  1.757812E+01  0.000000E+00
  7.812500E-01  1.796875E+01  0.000000E+00
  7.812500E-01  1.835938E+01  0.000000E+00
  7.812500E-01  1.875000E+01  0.000000E+00
  7.812500E-01  1.914062E+01  0.000000E+00
  7.812500E-01  1.953125E+01  0.000000E+00
  7.812500E-01  1.992188E+01  0.000000E+00
  7.812500E-01  2.031250E+01  0.000000E+00
  7.812500E-01  2.070312E+01  0.000000E+00
  7.812500E-01  2.109375E+01  0.000000E+00
  7.812500E-01  2.148438E+01  0.000000E+00
  7.812500E-01  2.187500E+01  0.000000E+00
  7.812500E-01  2.226562E+01  0.000000E+00
  7.812500E-01  2.265625E+01  0.000000E+00
  7.812500E-01  2.304688E+01  0.000000E+00
  7.812500E-01  2.343750E+01  0.000000E+00
  7.812500E-01  2.382812E+01  0.000000E+00
  7.812500E-01  2.421875E+01  0.000000E+00
  7.812500E-01  2.460938E+01  0.000000E+00
  1.171875E+00  0.000000E+00  0.000000E+00
  1.171875E+00  3.906250E-01  0.000000E+00
  1.171875E+00  7.812500E-01  0.000000E+00
  1.171875E+00  1.171875E+00  0.000000E+00
  1.171875E+00  1.562500E+00  0.000000E+00
  1.171875E+00  1.953125E+00  0.000000E+00
  1.171875E+00  2.343750E+00  0.000000E+00
  1.171875E+00  2.734375E+00  0.000000E+00
  1.171875E+00  3.125000E+00  0.000000E+00
  1.171875E+00  3.515625E+00  0.000000E+00
  1.171875E+00  3.906250E+00  0.000000E+00
  1.171875E+00  4.296875E+00  0.000000E+00
  1.171875E+00  4.687500E+00  0.000000E+00
  1.171875E+00  5.078125E+00  0.000000E+00
  1.171875E+00  5.468750E+00  0.000000E+00
  1.171875E+00  5.859375E+00  0.000000E+00
  1.171875E+00  6.250000E+00  0.000000E+00
  1.171875E+00  6.640625E+00  0.000000E+00
  1.171875E+00  7.031250E+00  0.000000E+00
  1.171875E+00  7.421875E+00  0.000000E+00
  1.171875E+00  7.812500E+00  0.000000E+00
  1.171875E+00  8.203125E+00  0.000000E+00
  1.171875E+00  8.593750E+00  0.000000E+00
  1.171875E+00  8.984375E+00  0.000000E+00
  1.171875E+00  9.375000E+00  0.000000E+00
  1.171875E+00  9.765625E+00  0.000000E+00
  1.171875E+00  1.015625E+01  0.000000E+00
  1.171875E+00  1.054688E+01  0.000000E+00
  1.171875E+00  1.093750E+01  0.000000E+00
  1.171875E+00  1.132812E+01  0.000000E+00
  1.171875E+00  1.171875E+01  0.000000E+00
  1.171875E+00  1.210938E+01  0.000000E+00
  1.171875E+00  1.250000E+01  0.000000E+00
  1.171875E+00  1.289062E+01  0.000000E+00
  1.171875E+00  1.328125E+01  0.000000E+00
  1.171875E+00  1.367188E+01  0.000000E+00
  1.171875E+00  1.406250E+01  0.000000E+00
  1.171875E+00  1.445312E+01  0.000000E+00
[...]
POINT_DATA   4096
SCALARS CON  float  1
LOOKUP_TABLE default
  4.701714E-01
  4.685128E-01
  4.731560E-01
  4.726724E-01
  4.735122E-01
  4.672682E-01
  4.671151E-01
  4.664433E-01
  4.722208E-01
  4.712100E-01
  4.714935E-01
  4.666495E-01
  4.682708E-01
  4.666897E-01
  4.691869E-01
  4.664511E-01
  4.693123E-01
  4.692895E-01
  4.734313E-01
  4.704911E-01
  4.703020E-01
  4.657078E-01
  4.665061E-01
  4.633070E-01
  4.651558E-01
  4.625864E-01
  4.644585E-01
  4.627830E-01
  4.681382E-01
  4.700163E-01
  4.736057E-01
  4.680431E-01
  4.660534E-01
  4.635656E-01
  4.696561E-01
  4.702097E-01
  4.714156E-01
  4.661846E-01
  4.662377E-01
  4.628028E-01
  4.650718E-01
  4.636609E-01
  4.659803E-01
  4.625829E-01
  4.648748E-01
  4.639570E-01
  4.666089E-01
  4.646477E-01
  4.705042E-01
  4.728044E-01
  4.746444E-01
  4.671439E-01
  4.655974E-01
  4.634688E-01
  4.679487E-01
  4.692247E-01
  4.763428E-01
  4.772102E-01
  4.783034E-01
  4.724995E-01
  4.727421E-01
  4.703821E-01
  4.724424E-01
  4.689364E-01
  4.702810E-01
  4.694295E-01
  4.756840E-01
  4.779353E-01
  4.781806E-01
  4.697278E-01
  4.658484E-01
  4.641479E-01
  4.696481E-01
  4.696544E-01
  4.697555E-01
  4.665359E-01
  4.695985E-01
  4.694164E-01
  4.701476E-01
  4.658946E-01
  4.674070E-01
  4.687771E-01
  4.744828E-01
  4.738524E-01
  4.729008E-01
  4.664309E-01
  4.646585E-01
  4.623515E-01
  4.658898E-01
  4.657092E-01
  4.675208E-01
  4.653714E-01
  4.684303E-01
  4.694274E-01
  4.725931E-01
  4.688584E-01
  4.675415E-01
  4.650345E-01
  4.682684E-01
  4.672164E-01
  4.680443E-01
  4.650857E-01
  4.664353E-01
  4.647119E-01
  4.663374E-01
  4.633728E-01
  4.628846E-01
  4.593506E-01
  4.615311E-01
  4.615871E-01
  4.649180E-01
  4.654912E-01
  4.726590E-01
  4.764128E-01
  4.776252E-01
  4.693298E-01
  4.659068E-01
  4.646510E-01
  4.705672E-01
  4.733670E-01
  4.786012E-01
  4.775524E-01
  4.764627E-01
  4.702813E-01
  4.697256E-01
  4.687957E-01
  4.721231E-01
  4.699583E-01
  4.643762E-01
  4.682572E-01
  4.760284E-01
  4.789407E-01
  4.771034E-01
  4.696387E-01
  4.665144E-01
  4.662025E-01
  4.694506E-01
  4.694192E-01
  4.699142E-01
  4.688674E-01
  4.705447E-01
  4.701920E-01
  4.705522E-01
  4.684427E-01
  4.693752E-01
  4.702641E-01
  4.731860E-01
  4.724789E-01
  4.716874E-01
  4.680144E-01
  4.663185E-01
  4.640835E-01
  4.654387E-01
  4.652410E-01
  4.656989E-01
  4.638515E-01
  4.652594E-01
  4.657861E-01
  4.668632E-01
  4.641393E-01
  4.637596E-01
  4.644138E-01
  4.688537E-01
  4.699443E-01
  4.699221E-01
  4.667719E-01
  4.661414E-01
  4.645020E-01
  4.650555E-01
  4.632385E-01
  4.618923E-01
  4.581020E-01
  4.582862E-01
  4.599056E-01
  4.650140E-01
  4.686362E-01
  4.747738E-01
  4.775185E-01
  4.766139E-01
  4.694228E-01
  4.659705E-01
  4.656841E-01
  4.699320E-01
  4.726490E-01
  4.771799E-01
  4.781125E-01
  4.764933E-01
  4.692592E-01
  4.645605E-01
  4.615111E-01
  4.624774E-01
  4.618544E-01
  4.639851E-01
  4.691266E-01
  4.755260E-01
  4.792535E-01
  4.747586E-01
  4.675690E-01
  4.625088E-01
  4.635795E-01
  4.659565E-01
  4.684336E-01
  4.689642E-01
  4.708561E-01
  4.722453E-01
  4.730544E-01
  4.705055E-01
  4.685408E-01
  4.679275E-01
  4.704807E-01
  4.719708E-01
  4.725546E-01
  4.707024E-01
  4.695973E-01
  4.683696E-01
  4.691890E-01
  4.695060E-01
  4.698584E-01
  4.677557E-01
  4.658671E-01
  4.638070E-01
  4.645245E-01
  4.658270E-01
  4.679628E-01
  4.679575E-01
  4.680841E-01
  4.671129E-01
  4.669284E-01
  4.656429E-01
  4.656489E-01
  4.660587E-01
  4.686977E-01
  4.691203E-01
  4.669629E-01
  4.625676E-01
  4.618033E-01
  4.631440E-01
  4.659016E-01
  4.667620E-01
  4.684481E-01
  4.704644E-01
  4.734954E-01
  4.721332E-01
  4.680422E-01
  4.645012E-01
  4.671802E-01
  4.719389E-01
  4.765424E-01
  4.778244E-01
  4.776558E-01
  4.735093E-01
  4.681958E-01
  4.633285E-01
  4.627843E-01
  4.628383E-01
  4.633723E-01
  4.611420E-01
  4.698265E-01
  4.732255E-01
  4.765472E-01
  4.694632E-01
  4.659477E-01
  4.612008E-01
  4.643980E-01
  4.635837E-01
  4.678356E-01
  4.680056E-01
  4.724729E-01
  4.705412E-01
  4.719616E-01
  4.683588E-01
  4.701388E-01
  4.682955E-01
  4.717777E-01
  4.697140E-01
  4.712752E-01
  4.684352E-01
  4.713900E-01
  4.691984E-01
  4.701868E-01
  4.659520E-01
  4.673104E-01
  4.643925E-01
  4.656300E-01
  4.616448E-01
  4.634279E-01
  4.627009E-01
  4.676366E-01
  4.661909E-01
  4.679321E-01
  4.657482E-01
  4.692861E-01
  4.667512E-01
  4.673105E-01
  4.641342E-01
  4.678339E-01
  4.662745E-01
  4.667062E-01
  4.618202E-01
  4.646695E-01
  4.657361E-01
  4.712402E-01
  4.690492E-01
  4.691690E-01
  4.652602E-01
  4.683672E-01
  4.665228E-01
  4.671839E-01
  4.632780E-01
  4.669381E-01
  4.673491E-01
  4.718971E-01
  4.713812E-01
  4.750998E-01
  4.714545E-01
  4.696400E-01
  4.628164E-01
  4.621070E-01
  4.577856E-01
  4.601048E-01
  4.658517E-01
  4.719176E-01
  4.716197E-01
  4.746383E-01
  4.676689E-01
  4.653430E-01
  4.587999E-01
  4.611602E-01
  4.594180E-01
  4.650868E-01
  4.650987E-01
  4.707333E-01
  4.689851E-01
  4.714775E-01
  4.664085E-01
  4.679167E-01
  4.655198E-01
  4.711574E-01
  4.704937E-01
  4.740198E-01
  4.699558E-01
  4.719195E-01
  4.675416E-01
  4.682109E-01
  4.627273E-01
  4.654236E-01
  4.640283E-01
  4.680314E-01
  4.635670E-01
  4.656648E-01
  4.657146E-01
  4.737376E-01
  4.714863E-01
  4.702045E-01
  4.629781E-01
  4.656951E-01
  4.640689E-01
  4.676283E-01
  4.653714E-01
  4.707499E-01
  4.681524E-01
  4.672649E-01
  4.607434E-01
  4.667881E-01
  4.708737E-01
  4.779985E-01
  4.725454E-01
  4.694097E-01
  4.619674E-01
  4.654963E-01
  4.646976E-01
  4.674832E-01
  4.627715E-01
  4.663876E-01
  4.656629E-01
  4.700442E-01
  4.669455E-01
  4.697266E-01
  4.663993E-01
  4.693351E-01
  4.664644E-01
  4.691957E-01
  4.649700E-01
  4.674796E-01
  4.659246E-01
  4.699456E-01
  4.689150E-01
  4.701208E-01
  4.659648E-01
  4.658952E-01
  4.629168E-01
  4.640168E-01
  4.612781E-01
  4.643385E-01
  4.653313E-01
  4.695210E-01
  4.672288E-01
  4.675720E-01
  4.648214E-01
  4.676075E-01
  4.676412E-01
  4.722456E-01
  4.722730E-01
  4.743268E-01
  4.710941E-01
  4.717728E-01
  4.674159E-01
  4.644188E-01
  4.572580E-01
  4.582209E-01
  4.598997E-01
  4.659719E-01
  4.648821E-01
  4.661706E-01
  4.662202E-01
  4.722525E-01
  4.708005E-01
  4.687967E-01
  4.642972E-01
  4.684916E-01
  4.694975E-01
  4.713882E-01
  4.679409E-01
  4.694708E-01
  4.665686E-01
  4.655054E-01
  4.612367E-01
  4.656196E-01
  4.699327E-01
  4.770665E-01
  4.749414E-01
  4.718379E-01
  4.647171E-01
  4.656613E-01
  4.652423E-01
  4.674377E-01
  4.641630E-01
  4.653228E-01
  4.629233E-01
  4.642136E-01
  4.622893E-01
  4.656744E-01
  4.657816E-01
  4.699603E-01
  4.692957E-01
  4.701608E-01
  4.655504E-01
  4.664586E-01
  4.676982E-01
  4.671755E-01
  4.668771E-01
  4.689705E-01
  4.685721E-01
  4.685385E-01
  4.666921E-01
  4.661662E-01
  4.644277E-01
  4.656017E-01
  4.666685E-01
  4.691017E-01
  4.684536E-01
  4.678347E-01
  4.659708E-01
  4.675036E-01
  4.695261E-01
  4.740483E-01
  4.762934E-01
  4.770990E-01
  4.734516E-01
  4.709978E-01
  4.679008E-01
  4.655682E-01
  4.610722E-01
  4.606633E-01
  4.629964E-01
  4.678937E-01
  4.683207E-01
  4.685436E-01
  4.702312E-01
  4.758905E-01
  4.762443E-01
  4.721492E-01
  4.664998E-01
  4.675765E-01
  4.701094E-01
  4.722583E-01
  4.709751E-01
  4.717542E-01
  4.704829E-01
  4.679793E-01
  4.640370E-01
  4.661319E-01
  4.703700E-01
  4.749706E-01
  4.739827E-01
  4.711538E-01
  4.669270E-01
  4.671934E-01
  4.675836E-01
  4.678864E-01
  4.654842E-01
  4.660716E-01
  4.666715E-01
  4.680134E-01
  4.660694E-01
  4.650495E-01
  4.642329E-01
  4.676869E-01
  4.704101E-01
  4.726111E-01
  4.711360E-01
  4.703089E-01
  4.620874E-01
  4.632460E-01
  4.647269E-01
  4.685068E-01
  4.694043E-01
  4.713853E-01
  4.717490E-01
  4.724497E-01
  4.698096E-01
  4.696540E-01
  4.698355E-01
  4.714196E-01
  4.690213E-01
  4.677850E-01
  4.673320E-01
  4.709376E-01
  4.729662E-01
  4.758186E-01
  4.759419E-01
  4.755867E-01
  4.715619E-01
  4.698108E-01
  4.678916E-01
  4.670587E-01
  4.633997E-01
  4.629766E-01
  4.641119E-01
  4.681557E-01
  4.685265E-01
  4.685515E-01
  4.681887E-01
  4.718851E-01
  4.726982E-01
  4.720555E-01
  4.701085E-01
  4.729807E-01
  4.743494E-01
  4.739375E-01
  4.696228E-01
  4.681975E-01
  4.669673E-01
  4.676718E-01
  4.661266E-01
  4.664146E-01
  4.660649E-01
  4.683500E-01
  4.686429E-01
  4.692730E-01
  4.677832E-01
  4.691136E-01
  4.691936E-01
  4.694795E-01
  4.669407E-01
  4.670267E-01
  4.671332E-01
  4.694672E-01
  4.689807E-01
  4.684358E-01
  4.658765E-01
  4.663557E-01
  4.658433E-01
  4.661061E-01
  4.639892E-01
  4.637299E-01
  4.625825E-01
  4.627500E-01
  4.648661E-01
  4.700452E-01
  4.708366E-01
  4.712909E-01
  4.699951E-01
  4.710495E-01
  4.700077E-01
  4.708656E-01
  4.703819E-01
  4.717782E-01
  4.703886E-01
  4.700579E-01
  4.682548E-01
  4.692811E-01
  4.690581E-01
  4.715914E-01
  4.729523E-01
  4.743124E-01
  4.703055E-01
  4.675083E-01
  4.656321E-01
  4.677391E-01
  4.677821E-01
  4.694266E-01
  4.698366E-01
  4.718791E-01
  4.701817E-01
  4.692595E-01
  4.683460E-01
  4.718411E-01
  4.727701E-01
  4.724836E-01
  4.694200E-01
  4.704435E-01
  4.708500E-01
  4.712370E-01
  4.679507E-01
  4.673536E-01
  4.663243E-01
  4.674496E-01
  4.669293E-01
  4.685304E-01
  4.672662E-01
  4.664017E-01
  4.636944E-01
  4.645173E-01
  4.656710E-01
  4.700227E-01
  4.713303E-01
  4.712876E-01
  4.676933E-01
  4.681641E-01
  4.704451E-01
  4.752994E-01
  4.747100E-01
  4.716053E-01
  4.658402E-01
  4.647148E-01
  4.643459E-01
  4.664567E-01
  4.660536E-01
  4.659268E-01
  4.607778E-01
  4.620426E-01
  4.645291E-01
  4.679158E-01
  4.684740E-01
  4.692100E-01
  4.699443E-01
  4.713364E-01
  4.704248E-01
  4.703199E-01
  4.704244E-01
  4.712437E-01
  4.695499E-01
  4.681434E-01
  4.669703E-01
  4.674706E-01
  4.668825E-01
  4.679280E-01
  4.695114E-01
  4.712074E-01
  4.692117E-01
  4.669021E-01
  4.649196E-01
  4.651504E-01
  4.653635E-01
  4.677455E-01
  4.699697E-01
  4.719425E-01
  4.705121E-01
  4.679940E-01
  4.649001E-01
  4.648757E-01
  4.654386E-01
  4.669412E-01
  4.680385E-01
  4.709400E-01
  4.718553E-01
  4.706137E-01
  4.662926E-01
  4.629716E-01
  4.608873E-01
  4.630329E-01
  4.662736E-01
  4.688309E-01
  4.672239E-01
  4.650468E-01
  4.630808E-01
  4.643864E-01
  4.670251E-01
  4.710291E-01
  4.720658E-01
  4.710085E-01
  4.678691E-01
  4.671767E-01
  4.684537E-01
  4.722558E-01
  4.737791E-01
  4.728490E-01
  4.690796E-01
  4.671605E-01
  4.659306E-01
  4.655884E-01
  4.635584E-01
  4.622521E-01
  4.643534E-01
  4.637974E-01
  4.648004E-01
  4.674878E-01
  4.683636E-01
  4.687592E-01
  4.682026E-01
  4.682281E-01
  4.673592E-01
  4.676544E-01
  4.680279E-01
  4.694277E-01
  4.693059E-01
  4.683862E-01
  4.660055E-01
  4.651533E-01
  4.653066E-01
  4.682554E-01
  4.717273E-01
  4.742482E-01
  4.721332E-01
  4.684929E-01
  4.651664E-01
  4.647160E-01
  4.654069E-01
  4.687011E-01
  4.721776E-01
  4.746330E-01
  4.729173E-01
  4.698595E-01
  4.669769E-01
  4.670113E-01
  4.670752E-01
  4.668121E-01
  4.653668E-01
  4.660521E-01
  4.672460E-01
  4.683429E-01
  4.669798E-01
  4.652218E-01
  4.627224E-01
  4.628087E-01
  4.652503E-01
  4.694027E-01
  4.703703E-01
  4.690545E-01
  4.665524E-01
  4.669296E-01
  4.690807E-01
  4.720425E-01
  4.714969E-01
  4.688560E-01
  4.655638E-01
  4.657139E-01
  4.680229E-01
  4.717981E-01
  4.728451E-01
  4.717187E-01
  4.691413E-01
  4.692982E-01
  4.704941E-01
  4.715197E-01
  4.696137E-01
  4.672147E-01
  4.626206E-01
  4.650822E-01
  4.648931E-01
  4.670924E-01
  4.673317E-01
  4.700610E-01
  4.696586E-01
  4.695128E-01
  4.660064E-01
  4.665080E-01
  4.669484E-01
  4.694893E-01
  4.674729E-01
  4.665084E-01
  4.645414E-01
  4.671778E-01
  4.686205E-01
  4.722927E-01
  4.730507E-01
  4.747393E-01
  4.721762E-01
  4.706098E-01
  4.662567E-01
  4.642892E-01
  4.615582E-01
  4.643709E-01
  4.672658E-01
  4.717608E-01
  4.709545E-01
  4.697721E-01
  4.658830E-01
  4.660002E-01
  4.652341E-01
  4.668200E-01
  4.662400E-01
  4.686832E-01
  4.684737E-01
  4.691008E-01
  4.662099E-01
  4.649971E-01
  4.618593E-01
  4.632435E-01
  4.643743E-01
  4.673450E-01
  4.666943E-01
  4.684859E-01
  4.685333E-01
  4.708938E-01
  4.706613E-01
  4.714971E-01
  4.678894E-01
  4.659181E-01
  4.631364E-01
  4.641831E-01
  4.635422E-01
  4.661445E-01
  4.675041E-01
  4.709357E-01
  4.708412E-01
  4.723054E-01
  4.705928E-01
  4.691577E-01
  4.641715E-01
  4.632313E-01
  4.660468E-01
  4.677805E-01
  4.665792E-01
  4.690079E-01
  4.689489E-01
  4.705558E-01
  4.676131E-01
  4.664616E-01
  4.633824E-01
  4.650405E-01
  4.651625E-01
  4.679666E-01
  4.668039E-01
  4.669455E-01
  4.643117E-01
  4.664425E-01
  4.675226E-01
  4.714061E-01
  4.718009E-01
  4.740715E-01
  4.719512E-01
  4.709970E-01
  4.668409E-01
  4.660777E-01
  4.635082E-01
  4.651146E-01
  4.654704E-01
  4.690714E-01
  4.687348E-01
  4.697989E-01
  4.682993E-01
  4.708998E-01
  4.704997E-01
  4.705061E-01
  4.662056E-01
  4.659831E-01
  4.648832E-01
  4.669521E-01
  4.662150E-01
  4.685761E-01
  4.675887E-01
  4.682065E-01
  4.658014E-01
  4.668244E-01
  4.659075E-01
  4.684515E-01
  4.679482E-01
  4.692798E-01
  4.673625E-01
  4.677618E-01
  4.643609E-01
  4.638534E-01
  4.625233E-01
  4.656650E-01
  4.660469E-01
  4.685610E-01
  4.679193E-01
  4.699319E-01
  4.692032E-01
  4.711866E-01
  4.694763E-01
  4.690919E-01
  4.657280E-01
  4.667097E-01
  4.659755E-01
  4.678212E-01
  4.668504E-01
  4.670931E-01
  4.675059E-01
  4.692490E-01
  4.691250E-01
  4.684365E-01
  4.660510E-01
  4.655403E-01
  4.653779E-01
  4.662779E-01
  4.651391E-01
  4.646927E-01
  4.649024E-01
  4.678075E-01
  4.690662E-01
  4.691523E-01
  4.677869E-01
  4.691216E-01
  4.705653E-01
  4.715789E-01
  4.691939E-01
  4.666246E-01
  4.633875E-01
  4.618635E-01
  4.606203E-01
  4.625629E-01
  4.648606E-01
  4.667699E-01
  4.658831E-01
  4.664766E-01
  4.670923E-01
  4.679512E-01
  4.672264E-01
  4.681683E-01
  4.678779E-01
  4.670793E-01
  4.653143E-01
  4.663414E-01
  4.675975E-01
  4.692476E-01
  4.679487E-01
  4.658965E-01
  4.638368E-01
  4.655799E-01
  4.669193E-01
  4.670972E-01
  4.648550E-01
  4.636956E-01
  4.620928E-01
  4.629861E-01
  4.650328E-01
  4.682272E-01
  4.683671E-01
  4.679754E-01
  4.671207E-01
  4.683520E-01
  4.685614E-01
  4.683075E-01
  4.652958E-01
  4.627238E-01
  4.610043E-01
  4.633698E-01
  4.726259E-01
  4.697039E-01
  4.678384E-01
  4.660589E-01
  4.675790E-01
  4.673620E-01
  4.681908E-01
  4.671698E-01
  4.676767E-01
  4.656833E-01
  4.651125E-01
  4.639330E-01
  4.654951E-01
  4.654098E-01
  4.674224E-01
  4.685283E-01
  4.703995E-01
  4.684139E-01
  4.682965E-01
  4.691952E-01
  4.728135E-01
  4.721477E-01
  4.704315E-01
  4.670985E-01
  4.664830E-01
  4.636226E-01
  4.623232E-01
  4.618535E-01
  4.653785E-01
  4.660168E-01
  4.664289E-01
  4.660120E-01
  4.686156E-01
  4.680805E-01
  4.673931E-01
  4.656474E-01
  4.666260E-01
  4.653025E-01
  4.659297E-01
  4.669673E-01
  4.702197E-01
  4.694641E-01
  4.685593E-01
  4.665379E-01
  4.678394E-01
  4.678336E-01
  4.677574E-01
  4.640691E-01
  4.627308E-01
  4.617915E-01
  4.634853E-01
  4.639246E-01
  4.675788E-01
  4.706171E-01
  4.738610E-01
  4.720166E-01
  4.693118E-01
  4.648928E-01
  4.637731E-01
  4.621238E-01
  4.628275E-01
  4.634000E-01
  4.677897E-01
  4.706888E-01
  4.748517E-01
  4.715875E-01
  4.687525E-01
  4.649283E-01
  4.659146E-01
  4.659874E-01
  4.686035E-01
  4.684142E-01
  4.694097E-01
  4.669174E-01
  4.666926E-01
  4.645580E-01
  4.647054E-01
  4.634816E-01
  4.675967E-01
  4.712748E-01
  4.747946E-01
  4.715040E-01
  4.694743E-01
  4.683081E-01
  4.720382E-01
  4.715602E-01
  4.695981E-01
  4.643368E-01
  4.631866E-01
  4.606652E-01
  4.608841E-01
  4.611702E-01
  4.655441E-01
  4.648058E-01
  4.629332E-01
  4.603953E-01
  4.644359E-01
  4.673202E-01
  4.710364E-01
  4.708652E-01
  4.710411E-01
  4.668079E-01
  4.652023E-01
  4.636085E-01
  4.657465E-01
  4.652561E-01
  4.666007E-01
  4.658900E-01
  4.684240E-01
  4.685136E-01
  4.684671E-01
  4.638274E-01
  4.628084E-01
  4.625146E-01
  4.656595E-01
  4.661100E-01
  4.692763E-01
  4.703257E-01
  4.718298E-01
  4.681673E-01
  4.658619E-01
  4.624870E-01
  4.626273E-01
  4.603378E-01
  4.607982E-01
  4.614779E-01
  4.675141E-01
  4.715828E-01
  4.789467E-01
  4.743535E-01
  4.702196E-01
  4.672642E-01
  4.670368E-01
  4.655119E-01
  4.645305E-01
  4.639663E-01
  4.659814E-01
  4.664934E-01
  4.665744E-01
  4.651115E-01
  4.645091E-01
  4.633001E-01
  4.651576E-01
  4.682995E-01
  4.717437E-01
  4.710575E-01
  4.697132E-01
  4.686416E-01
  4.698483E-01
  4.688536E-01
  4.668210E-01
  4.640430E-01
  4.640900E-01
  4.636766E-01
  4.642088E-01
  4.652627E-01
  4.680118E-01
  4.671384E-01
  4.651724E-01
  4.648083E-01
  4.692591E-01
  4.723364E-01
  4.728402E-01
  4.700182E-01
  4.680073E-01
  4.655779E-01
  4.654850E-01
  4.659220E-01
  4.668674E-01
  4.651786E-01
  4.653569E-01
  4.677457E-01
  4.721508E-01
  4.721904E-01
  4.684589E-01
  4.624543E-01
  4.610797E-01
  4.632744E-01
  4.672829E-01
  4.680728E-01
  4.688138E-01
  4.695451E-01
  4.709429E-01
  4.686001E-01
  4.654182E-01
  4.624827E-01
  4.625835E-01
  4.623262E-01
  4.638485E-01
  4.671600E-01
  4.739790E-01
  4.783974E-01
  4.741018E-01
  4.723752E-01
  4.694420E-01
  4.669602E-01
  4.662904E-01
  4.655331E-01
  4.647528E-01
  4.641334E-01
  4.649129E-01
  4.657930E-01
  4.665831E-01
  4.655874E-01
  4.632223E-01
  4.609084E-01
  4.619965E-01
  4.651871E-01
  4.679630E-01
  4.676938E-01
  4.658766E-01
  4.641179E-01
  4.648104E-01
  4.664071E-01
  4.671510E-01
  4.658036E-01
  4.646208E-01
  4.636528E-01
  4.638333E-01
  4.654565E-01
  4.681363E-01
  4.678603E-01
  4.655593E-01
  4.650402E-01
  4.687257E-01
  4.724874E-01
  4.736254E-01
  4.714223E-01
  4.684459E-01
  4.658367E-01
  4.650810E-01
  4.648371E-01
  4.648012E-01
  4.645186E-01
  4.658069E-01
  4.681923E-01
  4.707843E-01
  4.704722E-01
  4.671637E-01
  4.625986E-01
  4.610514E-01
  4.627026E-01
  4.657465E-01
  4.670547E-01
  4.676098E-01
  4.677331E-01
  4.672544E-01
  4.649819E-01
  4.640260E-01
  4.656941E-01
  4.686365E-01
  4.689977E-01
  4.677447E-01
  4.671456E-01
  4.694821E-01
  4.725064E-01
  4.725665E-01
  4.695468E-01
  4.692199E-01
  4.669771E-01
  4.679596E-01
  4.654031E-01
  4.647597E-01
  4.618652E-01
  4.631231E-01
  4.622755E-01
  4.642504E-01
  4.634772E-01
  4.652118E-01
  4.635342E-01
  4.643074E-01
  4.624135E-01
  4.636468E-01
  4.624566E-01
  4.638359E-01
  4.619114E-01
  4.636166E-01
  4.647098E-01
  4.694866E-01
  4.700276E-01
  4.711589E-01
  4.682273E-01
  4.685998E-01
  4.680117E-01
  4.708031E-01
  4.692672E-01
  4.698157E-01
  4.695287E-01
  4.735673E-01
  4.727533E-01
  4.707957E-01
  4.647207E-01
  4.638598E-01
  4.632740E-01
  4.666298E-01
  4.668272E-01
  4.685789E-01
  4.663341E-01
  4.676168E-01
  4.682851E-01
  4.715762E-01
  4.687365E-01
  4.659990E-01
  4.610726E-01
  4.614144E-01
  4.611338E-01
  4.643043E-01
  4.640225E-01
  4.663124E-01
  4.667694E-01
  4.699474E-01
  4.686351E-01
  4.696328E-01
  4.695814E-01
  4.734076E-01
  4.731577E-01
  4.736882E-01
  4.710287E-01
  4.723316E-01
  4.715301E-01
  4.671382E-01
  4.657669E-01
  4.686764E-01
  4.653517E-01
  4.674899E-01
  4.652270E-01
  4.685144E-01
  4.649085E-01
  4.649348E-01
  4.602738E-01
  4.635325E-01
  4.629684E-01
  4.673414E-01
  4.659684E-01
  4.697652E-01
  4.666985E-01
  4.670273E-01
  4.618373E-01
  4.628702E-01
  4.593875E-01
  4.633480E-01
  4.648857E-01
  4.718533E-01
  4.701089E-01
  4.707312E-01
  4.659706E-01
  4.685678E-01
  4.677811E-01
  4.719674E-01
  4.680984E-01
  4.681934E-01
  4.651087E-01
  4.697892E-01
  4.682865E-01
  4.695420E-01
  4.646980E-01
  4.666647E-01
  4.643815E-01
  4.668111E-01
  4.633211E-01
  4.661814E-01
  4.650339E-01
  4.692702E-01
  4.671542E-01
  4.690746E-01
  4.647170E-01
  4.660041E-01
  4.630023E-01
  4.655043E-01