# vtk DataFile Version 2.0
title
ASCII
DATASET STRUCTURED_GRID
DIMENSIONS   64   64    1
POINTS   4096  float
  0.000000E+00  0.000000E+00  0.000000E+00
  0.000000E+00  3.906250E-01  0.000000E+00
  0.000000E+00  7.812500E-01  0.000000E+00
  0.000000E+00  1.171875E+00  0.000000E+00
  0.000000E+00  1.562500E+00  0.000000E+00
  0.000000E+00  1.953125E+00  0.000000E+00
  0.000000E+00  2.343750E+00  0.000000E+00
  0.000000E+00  2.734375E+00  0.000000E+00
  0.000000E+00  3.125000E+00  0.000000E+00
  0.000000E+00  3.515625E+00  0.000000E+00
  0.000000E+00  3.906250E+00  0.000000E+00
  0.000000E+00  4.296875E+00  0.000000E+00
  0.000000E+00  4.687500E+00  0.000000E+00
  0.000000E+00  5.078125E+00  0.000000E+00
  0.000000E+00  5.468750E+00  0.000000E+00
  0.000000E+00  5.859375E+00  0.000000E+00
  0.000000E+00  6.250000E+00  0.000000E+00
  0.000000E+00  6.640625E+00  0.000000E+00
  0.000000E+00  7.031250E+00  0.000000E+00
  0.000000E+00  7.421875E+00  0.000000E+00
  0.000000E+00  7.812500E+00  0.000000E+00
  0.000000E+00  8.203125E+00  0.000000E+00
  0.000000E+00  8.593750E+00  0.000000E+00
  0.000000E+00  8.984375E+00  0.000000E+00
  0.000000E+00  9.375000E+00  0.000000E+00
  0.000000E+00  9.765625E+00  0.000000E+00
  0.000000E+00  1.015625E+01  0.000000E+00
  0.000000E+00  1.054688E+01  0.000000E+00
  0.000000E+00  1.093750E+01  0.000000E+00
  0.000000E+00  1.132812E+01  0.000000E+00
  0.000000E+00  1.171875E+01  0.000000E+00
  0.000000E+00  1.210938E+01  0.000000E+00
  0.000000E+00  1.250000E+01  0.000000E+00
  0.000000E+00  1.289062E+01  0.000000E+00
  0.000000E+00  1.328125E+01  0.000000E+00
  0.000000E+00  1.367188E+01  0.000000E+00
  0.000000E+00  1.406250E+01  0.000000E+00
  0.000000E+00  1.445312E+01  0.000000E+00
  0.000000E+00  1.484375E+01  0.000000E+00
  0.000000E+00  1.523438E+01  0.000000E+00
  0.000000E+00  1.562500E+01  0.000000E+00
  0.000000E+00  1.601562E+01  0.000000E+00
  0.000000E+00  1.640625E+01  0.000000E+00
  0.000000E+00  1.679688E+01  0.000000E+00
  0.000000E+00  1.718750E+01  0.000000E+00
  0.000000E+00  1.757812E+01  0.000000E+00
  0.000000E+00  1.796875E+01  0.000000E+00
  0.000000E+00  1.835938E+01  0.000000E+00
  0.000000E+00  1.875000E+01  0.000000E+00
  0.000000E+00  1.914062E+01  0.000000E+00
  0.000000E+00  1.953125E+01  0.000000E+00
  0.000000E+00  1.992188E+01  0.000000E+00
  0.000000E+00  2.031250E+01  0.000000E+00
  0.000000E+00  2.070312E+01  0.000000E+00
  0.000000E+00  2.109375E+01  0.000000E+00
  0.000000E+00  2.148438E+01  0.000000E+00
  0.000000E+00  2.187500E+01  0.000000E+00
  0.000000E+00  2.226562E+01  0.000000E+00
  0.000000E+00  2.265625E+01  0.000000E+00
  0.000000E+00  2.304688E+01  0.000000E+00
  0.000000E+00  2.343750E+01  0.000000E+00
  0.000000E+00  2.382812E+01  0.000000E+00
  0.000000E+00  2.421875E+01  0.000000E+00
  0.000000E+00  2.460938E+01  0.000000E+00
  3.906250E-01  0.000000E+00  0.000000E+00
  3.906250E-01  3.906250E-01  0.000000E+00
  3.906250E-01  7.812500E-01  0.000000E+00
  3.906250E-01  1.171875E+00  0.000000E+00
  3.906250E-01  1.562500E+00  0.000000E+00
  3.906250E-01  1.953125E+00  0.000000E+00
  3.906250E-01  2.343750E+00  0.000000E+00
  3.906250E-01  2.734375E+00  0.000000E+00
  3.906250E-01  3.125000E+00  0.000000E+00
  3.906250E-01  3.515625E+00  0.000000E+00
  3.906250E-01  3.906250E+00  0.000000E+00
  3.906250E-01  4.296875E+00  0.000000E+00
  3.906250E-01  4.687500E+00  0.000000E+00
  3.906250E-01  5.078125E+00  0.000000E+00
  3.906250E-01  5.468750E+00  0.000000E+00
  3.906250E-01  5.859375E+00  0.000000E+00
  3.906250E-01  6.250000E+00  0.000000E+00
  3.906250E-01  6.640625E+00  0.000000E+00
  3.906250E-01  7.031250E+00  0.000000E+00
  3.906250E-01  7.421875E+00  0.000000E+00
  3.906250E-01  7.812500E+00  0.000000E+00
  3.906250E-01  8.203125E+00  0.000000E+00
  3.906250E-01  8.593750E+00  0.000000E+00
  3.906250E-01  8.984375E+00  0.000000E+00
  3.906250E-01  9.375000E+00  0.000000E+00
  3.906250E-01  9.765625E+00  0.000000E+00
  3.906250E-01  1.015625E+01  0.000000E+00
  3.906250E-01  1.054688E+01  0.000000E+00
  3.906250E-01  1.093750E+01  0.000000E+00
  3.906250E-01  1.132812E+01  0.000000E+00
  3.906250E-01  1.171875E+01  0.000000E+00
  3.906250E-01  1.210938E+01  0.000000E+00
  3.906250E-01  1.250000E+01  0.000000E+00
  3.906250E-01  1.289062E+01  0.000000E+00
  3.906250E-01  1.328125E+01  0.000000E+00
  3.906250E-01  1.367188E+01  0.000000E+00
  3.906250E-01  1.406250E+01  0.000000E+00
  3.906250E-01  1.445312E+01  0.000000E+00
  3.906250E-01  1.484375E+01  0.000000E+00
  3.906250E-01  1.523438E+01  0.000000E+00
  3.906250E-01  1.562500E+01  0.000000E+00
  3.906250E-01  1.601562E+01  0.000000E+00
  3.906250E-01  1.640625E+01  0.000000E+00
  3.906250E-01  1.679688E+01  0.000000E+00
  3.906250E-01  1.718750E+01  0.000000E+00
  3.906250E-01  1.757812E+01  0.000000E+00
  3.906250E-01  1.796875E+01  0.000000E+00
  3.906250E-01  1.835938E+01  0.000000E+00
  3.906250E-01  1.875000E+01  0.000000E+00
  3.906250E-01  1.914062E+01  0.000000E+00
  3.906250E-01  1.953125E+01  0.000000E+00
  3.906250E-01  1.992188E+01  0.000000E+00
  3.906250E-01  2.031250E+01  0.000000E+00
  3.906250E-01  2.070312E+01  0.000000E+00
  3.906250E-01  2.109375E+01  0.000000E+00
  3.906250E-01  2.148438E+01  0.000000E+00
  3.906250E-01  2.187500E+01  0.000000E+00
  3.906250E-01  2.226562E+01  0.000000E+00
  3.906250E-01  2.265625E+01  0.000000E+00
  3.906250E-01  2.304688E+01  0.000000E+00
  3.906250E-01  2.343750E+01  0.000000E+00
  3.906250E-01  2.382812E+01  0.000000E+00
  3.906250E-01  2.421875E+01  0.000000E+00
  3.906250E-01  2.460938E+01  0.000000E+00
  7.812500E-01  0.000000E+00  0.000000E+00
  7.812500E-01  3.906250E-01  0.000000E+00
  7.812500E-01  7.812500E-01  0.000000E+00
  7.812500E-01  1.171875E+00  0.000000E+00
  7.812500E-01  1.562500E+00  0.000000E+00
  7.812500E-01  1.953125E+00  0.000000E+00
  7.812500E-01  2.343750E+00  0.000000E+00
  7.812500E-01  2.734375E+00  0.000000E+00
  7.812500E-01  3.125000E+00  0.000000E+00
  7.812500E-01  3.515625E+00  0.000000E+00
  7.812500E-01  3.906250E+00  0.000000E+00
  7.812500E-01  4.296875E+00  0.000000E+00
  7.812500E-01  4.687500E+00  0.000000E+00
  7.812500E-01  5.078125E+00  0.000000E+00
  7.812500E-01  5.468750E+00  0.000000E+00
  7.812500E-01  5.859375E+00  0.000000E+00
  7.812500E-01  6.250000E+00  0.000000E+00
  7.812500E-01  6.640625E+00  0.000000E+00
  7.812500E-01  7.031250E+00  0.000000E+00
  7.812500E-01  7.421875E+00  0.000000E+00
  7.812500E-01  7.812500E+00  0.000000E+00
  7.812500E-01  8.203125E+00  0.000000E+00
  7.812500E-01  8.593750E+00  0.000000E+00
  7.812500E-01  8.984375E+00  0.000000E+00
  7.812500E-01  9.375000E+00  0.000000E+00
  7.812500E-01  9.765625E+00  0.000000E+00
  7.812500E-01  1.015625E+01  0.000000E+00
  7.812500E-01  1.054688E+01  0.000000E+00
  7.812500E-01  1.093750E+01  0.000000E+00
  7.812500E-01  1.132812E+01  0.000000E+00
  7.812500E-01  1.171875E+01  0.000000E+00
  7.812500E-01  1.210938E+01  0.000000E+00
  7.812500E-01  1.250000E+01  0.000000E+00
  7.812500E-01  1.289062E+01  0.000000E+00
  7.812500E-01  1.328125E+01  0.000000E+00
  7.812500E-01  1.367188E+01  0.000000E+00
  7.812500E-01  1.406250E+01  0.000000E+00
  7.812500E-01  1.445312E+01  0.000000E+00
  7.812500E-01  1.484375E+01  0.000000E+00
  7.812500E-01  1.523438E+01  0.000000E+00
  7.812500E-01  1.562500E+01  0.000000E+00
  7.812500E-01  1.601562E+01  0.000000E+00
  7.812500E-01  1.640625E+01  0.000000E+00
  7.812500E-01  1.679688E+01  0.000000E+00
  7.812500E-01  1.718750E+01  0.000000E+00
  7.812500E-01  1.757812E+01  0.000000E+00
  7.812500E-01  1.796875E+01  0.000000E+00
  7.812500E-01  1.835938E+01  0.000000E+00
  7.812500E-01  1.875000E+01  0.000000E+00
  7.812500E-01  1.914062E+01  0.000000E+00
  7.812500E-01  1.953125E+01  0.000000E+00
  7.812500E-01  1.992188E+01  0.000000E+00
  7.812500E-01  2.031250E+01  0.000000E+00
  7.812500E-01  2.070312E+01  0.000000E+00
  7.812500E-01  2.109375E+01  0.000000E+00
  7.812500E-01  2.148438E+01  0.000000E+00
  7.812500E-01  2.187500E+01  0.000000E+00
  7.812500E-01  2.226562E+01  0.000000E+00
  7.812500E-01  2.265625E+01  0.000000E+00
  7.812500E-01  2.304688E+01  0.000000E+00
  7.812500E-01  2.343750E+01  0.000000E+00
  7.812500E-01  2.382812E+01  0.000000E+00
  7.812500E-01  2.421875E+01  0.000000E+00
  7.812500E-01  2.460938E+01  0.000000E+00
  1.171875E+00  0.000000E+00  0.000000E+00
  1.171875E+00  3.906250E-01  0.000000E+00
  1.171875E+00  7.812500E-01  0.000000E+00
  1.171875E+00  1.171875E+00  0.000000E+00
  1.171875E+00  1.562500E+00  0.000000E+00
  1.171875E+00  1.953125E+00  0.000000E+00
  1.171875E+00  2.343750E+00  0.000000E+00
  1.171875E+00  2.734375E+00  0.000000E+00
  1.171875E+00  3.125000E+00  0.000000E+00
  1.171875E+00  3.515625E+00  0.000000E+00
  1.171875E+00  3.906250E+00  0.000000E+00
  1.171875E+00  4.296875E+00  0.000000E+00
  1.171875E+00  4.687500E+00  0.000000E+00
  1.171875E+00  5.078125E+00  0.000000E+00
  1.171875E+00  5.468750E+00  0.000000E+00
  1.171875E+00  5.859375E+00  0.000000E+00
  1.171875E+00  6.250000E+00  0.000000E+00
  1.171875E+00  6.640625E+00  0.000000E+00
  1.171875E+00  7.031250E+00  0.000000E+00
  1.171875E+00  7.421875E+00  0.000000E+00
  1.171875E+00  7.812500E+00  0.000000E+00
  1.171875E+00  8.203125E+00  0.000000E+00
  1.171875E+00  8.593750E+00  0.000000E+00
  1.171875E+00  8.984375E+00  0.000000E+00
  1.171875E+00  9.375000E+00  0.000000E+00
  1.171875E+00  9.765625E+00  0.000000E+00
  1.171875E+00  1.015625E+01  0.000000E+00
  1.171875E+00  1.054688E+01  0.000000E+00
  1.171875E+00  1.093750E+01  0.000000E+00
  1.171875E+00  1.132812E+01  0.000000E+00
  1.171875E+00  1.171875E+01  0.000000E+00
  1.171875E+00  1.210938E+01  0.000000E+00
  1.171875E+00  1.250000E+01  0.000000E+00
  1.171875E+00  1.289062E+01  0.000000E+00
  1.171875E+00  1.328125E+01  0.000000E+00
  1.171875E+00  1.367188E+01  0.000000E+00
  1.171875E+00  1.406250E+01  0.000000E+00
  1.171875E+00  1.445312E+01  0.000000E+00
[...]
POINT_DATA   4096
SCALARS CON  float  1
LOOKUP_TABLE default
  4.695434E-01
  4.683586E-01
  4.705551E-01
  4.691322E-01
  4.708727E-01
  4.689465E-01
  4.702948E-01
  4.681786E-01
  4.695468E-01
  4.676073E-01
  4.692368E-01
  4.675867E-01
  4.695046E-01
  4.681275E-01
  4.702798E-01
  4.690524E-01
  4.712064E-01
  4.697774E-01
  4.715122E-01
  4.694948E-01
  4.705809E-01
  4.679954E-01
  4.687229E-01
  4.660638E-01
  4.670011E-01
  4.647609E-01
  4.662103E-01
  4.644608E-01
  4.663032E-01
  4.648278E-01
  4.668505E-01
  4.655036E-01
  4.676290E-01
  4.663490E-01
  4.684624E-01
  4.670398E-01
  4.688536E-01
  4.670007E-01
  4.683381E-01
  4.660861E-01
  4.672266E-01
  4.650632E-01
  4.665870E-01
  4.650259E-01
  4.672255E-01
  4.662383E-01
  4.687564E-01
  4.677511E-01
  4.699373E-01
  4.684104E-01
  4.700714E-01
  4.681970E-01
  4.697944E-01
  4.681268E-01
  4.700704E-01
  4.686940E-01
  4.707014E-01
  4.690896E-01
  4.706288E-01
  4.684970E-01
  4.696822E-01
  4.675215E-01
  4.690323E-01
  4.674369E-01
  4.712603E-01
  4.704422E-01
  4.715105E-01
  4.701668E-01
  4.706463E-01
  4.688477E-01
  4.691506E-01
  4.674955E-01
  4.681969E-01
  4.670627E-01
  4.682683E-01
  4.675290E-01
  4.689951E-01
  4.684081E-01
  4.699568E-01
  4.693965E-01
  4.708902E-01
  4.701432E-01
  4.712817E-01
  4.700232E-01
  4.705713E-01
  4.687715E-01
  4.689651E-01
  4.670969E-01
  4.675316E-01
  4.661502E-01
  4.671866E-01
  4.663656E-01
  4.677877E-01
  4.671064E-01
  4.684283E-01
  4.674805E-01
  4.684793E-01
  4.672553E-01
  4.680884E-01
  4.668170E-01
  4.676803E-01
  4.664565E-01
  4.673394E-01
  4.661012E-01
  4.669740E-01
  4.657922E-01
  4.668387E-01
  4.659546E-01
  4.673710E-01
  4.668322E-01
  4.684653E-01
  4.679496E-01
  4.694195E-01
  4.686356E-01
  4.698554E-01
  4.689501E-01
  4.702229E-01
  4.695016E-01
  4.709730E-01
  4.703290E-01
  4.716670E-01
  4.706834E-01
  4.715797E-01
  4.702151E-01
  4.709412E-01
  4.696847E-01
  4.707471E-01
  4.699026E-01
  4.681759E-01
  4.685116E-01
  4.693632E-01
  4.694895E-01
  4.698430E-01
  4.693859E-01
  4.692707E-01
  4.685843E-01
  4.685003E-01
  4.680434E-01
  4.682900E-01
  4.681803E-01
  4.687433E-01
  4.689019E-01
  4.696718E-01
  4.699433E-01
  4.706765E-01
  4.707044E-01
  4.709634E-01
  4.703266E-01
  4.698406E-01
  4.685348E-01
  4.676118E-01
  4.662053E-01
  4.655364E-01
  4.646675E-01
  4.646858E-01
  4.645049E-01
  4.650937E-01
  4.653059E-01
  4.661095E-01
  4.663921E-01
  4.671587E-01
  4.673133E-01
  4.678530E-01
  4.676671E-01
  4.677589E-01
  4.670670E-01
  4.666901E-01
  4.656876E-01
  4.652674E-01
  4.645456E-01
  4.647049E-01
  4.647510E-01
  4.656941E-01
  4.663512E-01
  4.675852E-01
  4.681556E-01
  4.689817E-01
  4.689799E-01
  4.692758E-01
  4.689674E-01
  4.692666E-01
  4.692239E-01
  4.698843E-01
  4.700786E-01
  4.706729E-01
  4.704437E-01
  4.703611E-01
  4.694295E-01
  4.688810E-01
  4.679068E-01
  4.677704E-01
  4.675237E-01
  4.695221E-01
  4.702345E-01
  4.699317E-01
  4.701521E-01
  4.692476E-01
  4.689715E-01
  4.678461E-01
  4.676898E-01
  4.669713E-01
  4.673720E-01
  4.672053E-01
  4.680406E-01
  4.681520E-01
  4.691319E-01
  4.692997E-01
  4.702715E-01
  4.703466E-01
  4.710900E-01
  4.707573E-01
  4.709196E-01
  4.699118E-01
  4.694459E-01
  4.680165E-01
  4.674576E-01
  4.663028E-01
  4.663242E-01
  4.659105E-01
  4.666512E-01
  4.667699E-01
  4.677550E-01
  4.678154E-01
  4.685056E-01
  4.681493E-01
  4.684223E-01
  4.677378E-01
  4.678078E-01
  4.670326E-01
  4.670852E-01
  4.663306E-01
  4.664333E-01
  4.657806E-01
  4.660721E-01
  4.657139E-01
  4.663831E-01
  4.664161E-01
  4.673920E-01
  4.675602E-01
  4.684651E-01
  4.683961E-01
  4.690037E-01
  4.687085E-01
  4.692611E-01
  4.691029E-01
  4.699105E-01
  4.699835E-01
  4.708496E-01
  4.707209E-01
  4.711450E-01
  4.704628E-01
  4.704113E-01
  4.695043E-01
  4.695611E-01
  4.690471E-01
  4.696176E-01
  4.662830E-01
  4.679600E-01
  4.676013E-01
  4.691288E-01
  4.683064E-01
  4.692575E-01
  4.679526E-01
  4.686525E-01
  4.673614E-01
  4.682836E-01
  4.673250E-01
  4.685998E-01
  4.679598E-01
  4.694988E-01
  4.690558E-01
  4.706934E-01
  4.701943E-01
  4.715596E-01
  4.705429E-01
  4.711831E-01
  4.693489E-01
  4.692487E-01
  4.669255E-01
  4.667091E-01
  4.646706E-01
  4.650666E-01
  4.638215E-01
  4.650226E-01
  4.644538E-01
  4.661238E-01
  4.658027E-01
  4.675284E-01
  4.671115E-01
  4.686165E-01
  4.678620E-01
  4.689177E-01
  4.676290E-01
  4.681314E-01
  4.663741E-01
  4.666107E-01
  4.648839E-01
  4.654782E-01
  4.643831E-01
  4.657498E-01
  4.653865E-01
  4.672652E-01
  4.670721E-01
  4.687552E-01
  4.680868E-01
  4.691878E-01
  4.680340E-01
  4.689091E-01
  4.678480E-01
  4.690626E-01
  4.684070E-01
  4.698715E-01
  4.691399E-01
  4.701596E-01
  4.687279E-01
  4.690262E-01
  4.671173E-01
  4.673734E-01
  4.658937E-01
  4.669153E-01
  4.677138E-01
  4.694167E-01
  4.682158E-01
  4.695317E-01
  4.678235E-01
  4.687020E-01
  4.667843E-01
  4.677494E-01
  4.661759E-01
  4.676266E-01
  4.665431E-01
  4.683871E-01
  4.675641E-01
  4.695556E-01
  4.688051E-01
  4.708076E-01
  4.699762E-01
  4.717459E-01
  4.704809E-01
  4.716245E-01
  4.696292E-01
  4.700937E-01
  4.676459E-01
  4.680177E-01
  4.658784E-01
  4.668913E-01
  4.655671E-01
  4.673708E-01
  4.666350E-01
  4.687158E-01
  4.679287E-01
  4.696966E-01
  4.684532E-01
  4.697475E-01
  4.681103E-01
  4.691374E-01
  4.673593E-01
  4.683440E-01
  4.665926E-01
  4.676614E-01
  4.660588E-01
  4.673533E-01
  4.660480E-01
  4.676728E-01
  4.666602E-01
  4.684591E-01
  4.674454E-01
  4.690669E-01
  4.677640E-01
  4.690975E-01
  4.676274E-01
  4.689894E-01
  4.677379E-01
  4.694175E-01
  4.684381E-01
  4.702047E-01
  4.690525E-01
  4.704133E-01
  4.687472E-01
  4.696639E-01
  4.677846E-01
  4.687978E-01
  4.672866E-01
  4.687957E-01
  4.647619E-01
  4.669938E-01
  4.661289E-01
  4.683693E-01
  4.671956E-01
  4.689660E-01
  4.673383E-01
  4.688037E-01
  4.670733E-01
  4.686180E-01
  4.670888E-01
  4.688949E-01
  4.676464E-01
  4.697283E-01
  4.687223E-01
  4.709605E-01
  4.699474E-01
  4.719396E-01
  4.704078E-01
  4.716513E-01
  4.692691E-01
  4.697462E-01
  4.668685E-01
  4.672477E-01
  4.646933E-01
  4.657318E-01
  4.640116E-01
  4.658783E-01
  4.648359E-01
  4.671542E-01
  4.663305E-01
  4.686714E-01
  4.677189E-01
  4.698075E-01
  4.684879E-01
  4.701020E-01
  4.682322E-01
  4.692927E-01
  4.669729E-01
  4.678006E-01
  4.655452E-01
  4.667457E-01
  4.650984E-01
  4.669989E-01
  4.659674E-01
  4.682422E-01
  4.672537E-01
  4.692467E-01
  4.677561E-01
  4.691979E-01
  4.672906E-01
  4.685842E-01
  4.668321E-01
  4.685028E-01
  4.671764E-01
  4.691184E-01
  4.677553E-01
  4.693139E-01
  4.673207E-01
  4.682121E-01
  4.657576E-01
  4.665767E-01
  4.644906E-01
  4.660173E-01
  4.666028E-01
  4.684350E-01
  4.671115E-01
  4.687580E-01
  4.671280E-01
  4.684770E-01
  4.666741E-01
  4.680332E-01
  4.664100E-01
  4.680504E-01
  4.667275E-01
  4.686296E-01
  4.675143E-01
  4.695857E-01
  4.686160E-01
  4.707914E-01
  4.698250E-01
  4.718241E-01
  4.704484E-01
  4.718213E-01
  4.697063E-01
  4.703981E-01
  4.678455E-01
  4.684761E-01
  4.662699E-01
  4.675706E-01
  4.661856E-01
  4.682537E-01
  4.674077E-01
  4.696895E-01
  4.687297E-01
  4.706491E-01
  4.692019E-01
  4.706337E-01
  4.687909E-01
  4.699622E-01
  4.679929E-01
  4.691459E-01
  4.672378E-01
  4.685146E-01
  4.667878E-01
  4.682983E-01
  4.668371E-01
  4.686011E-01
  4.673208E-01
  4.691368E-01
  4.677545E-01
  4.693399E-01
  4.676743E-01
  4.690267E-01
  4.672713E-01
  4.687208E-01
  4.672214E-01
  4.689916E-01
  4.677495E-01
  4.696003E-01
  4.682087E-01
  4.697106E-01
  4.678775E-01
  4.689914E-01
  4.669558E-01
  4.681212E-01
  4.663707E-01
  4.679523E-01
  4.640955E-01
  4.661228E-01
  4.654338E-01
  4.676865E-01
  4.669069E-01
  4.688416E-01
  4.676447E-01
  4.691827E-01
  4.676903E-01
  4.690693E-01
  4.675579E-01
  4.690478E-01
  4.677612E-01
  4.695603E-01
  4.686108E-01
  4.706845E-01
  4.698365E-01
  4.717425E-01
  4.704196E-01
  4.715960E-01
  4.694327E-01
  4.698575E-01
  4.672248E-01
  4.675848E-01
  4.653023E-01
  4.663269E-01
  4.648513E-01
  4.666428E-01
  4.657592E-01
  4.679095E-01
  4.671637E-01
  4.692811E-01
  4.683810E-01
  4.702469E-01
  4.689990E-01
  4.704208E-01
  4.686606E-01
  4.695736E-01
  4.674137E-01
  4.681434E-01
  4.660847E-01
  4.671958E-01
  4.657138E-01
  4.674527E-01
  4.664874E-01
  4.685014E-01
  4.675103E-01
  4.692267E-01
  4.677746E-01
  4.690205E-01
  4.672399E-01
  4.683989E-01
  4.667868E-01
  4.682897E-01
  4.670466E-01
  4.687744E-01
  4.674854E-01
  4.688639E-01
  4.670045E-01
  4.677667E-01
  4.654544E-01
  4.660968E-01
  4.640652E-01
  4.653292E-01
  4.663506E-01
  4.677778E-01
  4.668023E-01
  4.682367E-01
  4.671537E-01
  4.684303E-01
  4.672055E-01
  4.684002E-01
  4.671649E-01
  4.684076E-01
  4.672604E-01
  4.686249E-01
  4.676419E-01
  4.692221E-01
  4.684914E-01
  4.703038E-01
  4.696924E-01
  4.714138E-01
  4.704451E-01
  4.715686E-01
  4.698794E-01
  4.703418E-01
  4.682383E-01
  4.686596E-01
  4.669074E-01
  4.679764E-01
  4.669902E-01
  4.687429E-01
  4.681970E-01
  4.700678E-01
  4.693331E-01
  4.707975E-01
  4.695640E-01
  4.705564E-01
  4.689607E-01
  4.697367E-01
  4.680661E-01
  4.688816E-01
  4.673339E-01
  4.683310E-01
  4.670053E-01
  4.682451E-01
  4.671527E-01
  4.685754E-01
  4.675731E-01
  4.689660E-01
  4.678195E-01
  4.689985E-01
  4.676423E-01
  4.686955E-01
  4.673520E-01
  4.685625E-01
  4.674714E-01
  4.689392E-01
  4.680102E-01
  4.694713E-01
  4.683472E-01
  4.694674E-01
  4.679492E-01
  4.687336E-01
  4.670328E-01
  4.678364E-01
  4.663451E-01
  4.674822E-01
  4.642026E-01
  4.657489E-01
  4.654584E-01
  4.673573E-01
  4.671201E-01
  4.688069E-01
  4.681763E-01
  4.693926E-01
  4.683138E-01
  4.691849E-01
  4.679224E-01
  4.688047E-01
  4.677511E-01
  4.690022E-01
  4.683925E-01
  4.700378E-01
  4.696338E-01
  4.711864E-01
  4.703538E-01
  4.712034E-01
  4.695475E-01
  4.696590E-01
  4.675419E-01
  4.675843E-01
  4.657926E-01
  4.664495E-01
  4.653914E-01
  4.667285E-01
  4.661769E-01
  4.678031E-01
  4.673460E-01
  4.689252E-01
  4.683247E-01
  4.696809E-01
  4.687714E-01
  4.697290E-01
  4.683599E-01
  4.688694E-01
  4.671663E-01
  4.675537E-01
  4.659924E-01
  4.667653E-01
  4.657401E-01
  4.670616E-01
  4.664580E-01
  4.679766E-01
  4.673185E-01
  4.685779E-01
  4.675589E-01
  4.684803E-01
  4.672537E-01
  4.681560E-01
  4.670890E-01
  4.682537E-01
  4.674331E-01
  4.687043E-01
  4.677642E-01
  4.686772E-01
  4.672131E-01
  4.675779E-01
  4.657098E-01
  4.659552E-01
  4.643164E-01
  4.651055E-01
  4.667728E-01
  4.677158E-01
  4.671111E-01
  4.680911E-01
  4.674420E-01
  4.683231E-01
  4.675515E-01
  4.683134E-01
  4.674457E-01
  4.681511E-01
  4.672856E-01
  4.680750E-01
  4.673944E-01
  4.684687E-01
  4.681345E-01
  4.695343E-01
  4.693943E-01
  4.707534E-01
  4.702861E-01
  4.710648E-01
  4.698870E-01
  4.700064E-01
  4.684021E-01
  4.684479E-01
  4.671395E-01
  4.677595E-01
  4.671368E-01
  4.683680E-01
  4.681344E-01
  4.694615E-01
  4.690451E-01
  4.699925E-01
  4.691134E-01
  4.696250E-01
  4.684169E-01
  4.687456E-01
  4.675034E-01
  4.679246E-01
  4.668678E-01
  4.675299E-01
  4.667313E-01
  4.676298E-01
  4.670074E-01
  4.679902E-01
  4.673447E-01
  4.682084E-01
  4.673888E-01
  4.680865E-01
  4.671755E-01
  4.679024E-01
  4.671471E-01
  4.681153E-01
  4.676107E-01
  4.687519E-01
  4.682755E-01
  4.692764E-01
  4.685190E-01
  4.691680E-01
  4.680761E-01
  4.684874E-01
  4.673035E-01
  4.677768E-01
  4.667791E-01
  4.675081E-01
  4.649196E-01
  4.659829E-01
  4.660165E-01
  4.673534E-01
  4.674149E-01
  4.685499E-01
  4.682386E-01
  4.689152E-01
  4.681547E-01
  4.684816E-01
  4.675451E-01
  4.679151E-01
  4.672442E-01
  4.680541E-01
  4.678964E-01
  4.691544E-01
  4.692363E-01
  4.704196E-01
  4.700837E-01
  4.705734E-01
  4.694207E-01
  4.691674E-01
  4.675265E-01
  4.671488E-01
  4.657537E-01
  4.659007E-01
  4.651596E-01
  4.659371E-01
  4.656939E-01
  4.667920E-01
  4.667018E-01
  4.678189E-01
  4.676409E-01
  4.685703E-01
  4.681001E-01
  4.686414E-01
  4.677309E-01
  4.678623E-01
  4.666727E-01
  4.667369E-01
  4.657189E-01
  4.661499E-01
  4.655909E-01
  4.664462E-01
  4.661693E-01
  4.671107E-01
  4.667367E-01
  4.674657E-01
  4.668590E-01
  4.674233E-01
  4.667745E-01
  4.674262E-01
  4.669536E-01
  4.677957E-01
  4.674419E-01
  4.682594E-01
  4.677040E-01
  4.681628E-01
  4.671648E-01
  4.672078E-01
  4.659385E-01
  4.659440E-01
  4.649034E-01
  4.653675E-01
  4.677762E-01
  4.681882E-01
  4.678898E-01
  4.681646E-01
  4.677206E-01
  4.678685E-01
  4.673315E-01
  4.674258E-01
  4.668771E-01
  4.670077E-01
  4.665568E-01
  4.668645E-01
  4.666811E-01
  4.673360E-01
  4.675337E-01
  4.685221E-01
  4.689044E-01
  4.698400E-01
  4.698932E-01
  4.702599E-01
  4.696186E-01
  4.693292E-01
  4.682346E-01
  4.678076E-01
  4.669162E-01
  4.669640E-01
  4.666811E-01
  4.673093E-01
  4.674407E-01
  4.682374E-01
  4.682829E-01
  4.687915E-01
  4.684369E-01
  4.685341E-01
  4.678439E-01
  4.677412E-01
  4.670127E-01
  4.670254E-01
  4.665299E-01
  4.668356E-01
  4.666244E-01
  4.671386E-01
  4.670095E-01
  4.674600E-01
  4.671420E-01
  4.673381E-01
  4.667857E-01
  4.668543E-01
  4.663405E-01
  4.666229E-01
  4.664491E-01
  4.671032E-01
  4.672225E-01
  4.680025E-01
  4.680443E-01
  4.685711E-01
  4.682655E-01
  4.684557E-01
  4.679160E-01
  4.680246E-01
  4.675521E-01
  4.678273E-01
  4.675495E-01
  4.679803E-01
  4.661831E-01
  4.666051E-01
  4.669718E-01
  4.674341E-01
  4.676825E-01
  4.678965E-01
  4.678167E-01
  4.676852E-01
  4.673094E-01
  4.669954E-01
  4.666023E-01
  4.664631E-01
  4.664263E-01
  4.667691E-01
  4.672414E-01
  4.679959E-01
  4.686621E-01
  4.693110E-01
  4.695590E-01
  4.695443E-01
  4.690194E-01
  4.682927E-01
  4.672729E-01
  4.663669E-01
  4.654994E-01
  4.650136E-01
  4.647198E-01
  4.648369E-01
  4.650760E-01
  4.655996E-01
  4.660993E-01
  4.667365E-01
  4.672032E-01
  4.676592E-01
  4.678041E-01
  4.678326E-01
  4.675164E-01
  4.671495E-01
  4.666007E-01
  4.662216E-01
  4.658730E-01
  4.658308E-01
  4.658390E-01
  4.660594E-01
  4.661663E-01
  4.663188E-01
  4.662514E-01
  4.662172E-01
  4.660403E-01
  4.660268E-01
  4.660019E-01
  4.662253E-01
  4.664466E-01
  4.668465E-01
  4.671147E-01
  4.674069E-01
  4.674290E-01
  4.673903E-01
  4.670751E-01
  4.667766E-01
  4.663467E-01
  4.661111E-01
  4.659096E-01
  4.660137E-01
  4.692263E-01
  4.688594E-01
  4.689435E-01
  4.681975E-01
  4.679856E-01
  4.670716E-01
  4.668297E-01
  4.660059E-01
  4.659437E-01
  4.653599E-01
  4.655793E-01
  4.653112E-01
  4.658759E-01
  4.659682E-01
  4.668733E-01
  4.672292E-01
  4.682522E-01
  4.685221E-01
  4.692335E-01
  4.689994E-01
  4.691047E-01
  4.682905E-01
  4.679736E-01
  4.669917E-01
  4.667944E-01
  4.661794E-01
  4.664969E-01
  4.664155E-01
  4.671608E-01
  4.673120E-01
  4.680574E-01
  4.679940E-01
  4.683742E-01
  4.678880E-01
  4.678895E-01
  4.671564E-01
  4.670972E-01
  4.664984E-01
  4.667271E-01
  4.664862E-01
  4.670367E-01
  4.669813E-01
  4.675159E-01
  4.672359E-01
  4.673953E-01
  4.666999E-01
  4.665362E-01
  4.657232E-01
  4.657043E-01
  4.652767E-01
  4.657864E-01
  4.658876E-01
  4.667833E-01
  4.670320E-01
  4.678196E-01
  4.677695E-01
  4.681891E-01
  4.678345E-01
  4.681096E-01
  4.677990E-01
  4.682611E-01
  4.681832E-01
  4.688132E-01
  4.687549E-01
  4.676866E-01
  4.672351E-01
  4.680074E-01
  4.673985E-01
  4.679388E-01
  4.670675E-01
  4.673598E-01
  4.662948E-01
  4.664822E-01
  4.654296E-01
  4.657656E-01
  4.650003E-01
  4.657387E-01
  4.654359E-01
  4.666152E-01
  4.666376E-01
  4.679422E-01
  4.678409E-01
  4.687760E-01
  4.681199E-01
  4.684219E-01
  4.671824E-01
  4.670672E-01
  4.656524E-01
  4.656226E-01
  4.645169E-01
  4.649442E-01
  4.643550E-01
  4.652790E-01
  4.651073E-01
  4.663290E-01
  4.663057E-01
  4.675046E-01
  4.672794E-01
  4.681170E-01
  4.674303E-01
  4.678025E-01
  4.667576E-01
  4.669684E-01
  4.659901E-01
  4.664514E-01
  4.658007E-01
  4.665366E-01
  4.660046E-01
  4.666675E-01
  4.659144E-01
  4.663103E-01
  4.653630E-01
  4.657270E-01
  4.649394E-01
  4.656178E-01
  4.652137E-01
  4.662423E-01
  4.660681E-01
  4.671567E-01
  4.668707E-01
  4.677172E-01
  4.671293E-01
  4.676947E-01
  4.669159E-01
  4.674204E-01
  4.667115E-01
  4.673792E-01
  4.668637E-01
  4.706018E-01
  4.693863E-01
  4.698198E-01
  4.681146E-01
  4.682077E-01
  4.663622E-01
  4.665166E-01
  4.648966E-01
  4.653835E-01
  4.641460E-01
  4.650232E-01
  4.641598E-01
  4.653837E-01
  4.648310E-01
  4.663138E-01
  4.659409E-01
  4.674899E-01
  4.670406E-01
  4.683622E-01
  4.675587E-01
  4.684587E-01
  4.672497E-01
  4.678483E-01
  4.665105E-01
  4.671814E-01
  4.660975E-01
  4.671403E-01
  4.664544E-01
  4.678234E-01
  4.673106E-01
  4.686537E-01
  4.679164E-01
  4.688844E-01
  4.677088E-01
  4.682831E-01
  4.668609E-01
  4.674050E-01
  4.661822E-01
  4.671038E-01
  4.663291E-01
  4.676333E-01
  4.670504E-01
  4.682805E-01
  4.673607E-01
  4.680764E-01
  4.666114E-01
  4.669163E-01
  4.653080E-01
  4.657955E-01
  4.646590E-01
  4.657870E-01
  4.652926E-01
  4.669042E-01
  4.666322E-01
  4.681894E-01
  4.676575E-01
  4.688771E-01
  4.680650E-01
  4.691559E-01
  4.683873E-01
  4.696378E-01
  4.690377E-01
  4.703496E-01
  4.696226E-01
  4.687380E-01
  4.676301E-01
  4.685853E-01
  4.673211E-01
  4.680869E-01
  4.666358E-01
  4.672482E-01
  4.657007E-01
  4.662922E-01
  4.648146E-01
  4.655778E-01
  4.643733E-01
  4.654906E-01
  4.646764E-01
  4.661553E-01
  4.656029E-01
  4.671856E-01
  4.665510E-01
  4.678773E-01
  4.668632E-01
  4.677652E-01
  4.663682E-01
  4.670025E-01
  4.654971E-01
  4.661897E-01
  4.648838E-01
  4.658707E-01
  4.649014E-01
  4.662203E-01
  4.655397E-01
  4.670699E-01
  4.664899E-01
  4.679798E-01
  4.672040E-01
  4.683600E-01
  4.671726E-01
  4.679368E-01
  4.664846E-01
  4.671885E-01
  4.658940E-01
  4.669101E-01
  4.659609E-01
  4.672214E-01
  4.663210E-01
  4.674172E-01
  4.662046E-01
  4.669616E-01
  4.655124E-01
  4.662269E-01
  4.649546E-01
  4.660223E-01
  4.651893E-01
  4.666771E-01
  4.661548E-01
  4.677885E-01
  4.672349E-01
  4.686871E-01
  4.678580E-01
  4.690113E-01
  4.679269E-01
  4.689149E-01
  4.677690E-01
  4.687781E-01
  4.676893E-01
  4.711631E-01
  4.696430E-01
  4.699916E-01
  4.680979E-01
  4.682376E-01
  4.663250E-01
  4.666166E-01
  4.649761E-01
  4.655988E-01
  4.642968E-01
  4.652344E-01
  4.642142E-01
  4.654034E-01
  4.646085E-01
  4.659926E-01
  4.653462E-01
  4.668101E-01
  4.661555E-01
  4.675180E-01
  4.666851E-01
  4.678297E-01
  4.667901E-01
  4.677906E-01
  4.667062E-01
  4.677723E-01
  4.668457E-01
  4.681172E-01
  4.673834E-01
  4.687728E-01
  4.680323E-01
  4.692663E-01
  4.682319E-01
  4.690809E-01
  4.676493E-01
  4.681839E-01
  4.666092E-01
  4.672273E-01
  4.659629E-01
  4.670556E-01
  4.663142E-01
  4.678371E-01
  4.673074E-01
  4.687526E-01
  4.678652E-01
  4.687643E-01
  4.672926E-01
  4.677352E-01
  4.660669E-01
  4.666315E-01
  4.653736E-01
  4.665290E-01
  4.658918E-01
  4.675522E-01
  4.672060E-01
  4.689175E-01
  4.684286E-01
  4.698974E-01
  4.691693E-01
  4.704769E-01
  4.696862E-01
  4.709935E-01
  4.701902E-01
  4.713936E-01
  4.703452E-01
  4.687145E-01
  4.677438E-01
  4.682966E-01
  4.673856E-01
  4.679579E-01
  4.670205E-01
  4.675227E-01
  4.664840E-01
  4.668795E-01
  4.657671E-01
  4.661648E-01
  4.651618E-01
  4.657804E-01
  4.650786E-01
  4.660173E-01
  4.655808E-01
  4.666674E-01
  4.662304E-01
  4.671780E-01
  4.665101E-01
  4.672023E-01
  4.663214E-01
  4.668901E-01
  4.659916E-01
  4.666338E-01
  4.658648E-01
  4.666534E-01
  4.660187E-01
  4.669176E-01
  4.663696E-01
  4.673318E-01
  4.668125E-01
  4.677445E-01
  4.671109E-01
  4.678387E-01
  4.669420E-01
  4.674173E-01
  4.663659E-01
  4.668535E-01
  4.659982E-01
  4.668148E-01
  4.663159E-01
  4.673948E-01
  4.669741E-01
  4.679229E-01
  4.672127E-01
  4.678140E-01
  4.668127E-01
  4.672681E-01