# vtk DataFile Version 2.0
title
ASCII
DATASET STRUCTURED_GRID
DIMENSIONS   64   64    1
POINTS   4096  float
  0.000000E+00  0.000000E+00  0.000000E+00
  0.000000E+00  3.906250E-01  0.000000E+00
  0.000000E+00  7.812500E-01  0.000000E+00
  0.000000E+00  1.171875E+00  0.000000E+00
  0.000000E+00  1.562500E+00  0.000000E+00
  0.000000E+00  1.953125E+00  0.000000E+00
  0.000000E+00  2.343750E+00  0.000000E+00
  0.000000E+00  2.734375E+00  0.000000E+00
  0.000000E+00  3.125000E+00  0.000000E+00
  0.000000E+00  3.515625E+00  0.000000E+00
  0.000000E+00  3.906250E+00  0.000000E+00
  0.000000E+00  4.296875E+00  0.000000E+00
  0.000000E+00  4.687500E+00  0.000000E+00
  0.000000E+00  5.078125E+00  0.000000E+00
  0.000000E+00  5.468750E+00  0.000000E+00
  0.000000E+00  5.859375E+00  0.000000E+00
  0.000000E+00  6.250000E+00  0.000000E+00
  0.000000E+00  6.640625E+00  0.000000E+00
  0.000000E+00  7.031250E+00  0.000000E+00
  0.000000E+00  7.421875E+00  0.000000E+00
  0.000000E+00  7.812500E+00  0.000000E+00
  0.000000E+00  8.203125E+00  0.000000E+00
  0.000000E+00  8.593750E+00  0.000000E+00
  0.000000E+00  8.984375E+00  0.000000E+00
  0.000000E+00  9.375000E+00  0.000000E+00
  0.000000E+00  9.765625E+00  0.000000E+00
  0.000000E+00  1.015625E+01  0.000000E+00
  0.000000E+00  1.054688E+01  0.000000E+00
  0.000000E+00  1.093750E+01  0.000000E+00
  0.000000E+00  1.132812E+01  0.000000E+00
  0.000000E+00  1.171875E+01  0.000000E+00
  0.000000E+00  1.210938E+01  0.000000E+00
  0.000000E+00  1.250000E+01  0.000000E+00
  0.000000E+00  1.289062E+01  0.000000E+00
  0.000000E+00  1.328125E+01  0.000000E+00
  0.000000E+00  1.367188E+01  0.000000E+00
  0.000000E+00  1.406250E+01  0.000000E+00
  0.000000E+00  1.445312E+01  0.000000E+00
  0.000000E+00  1.484375E+01  0.000000E+00
  0.000000E+00  1.523438E+01  0.000000E+00
  0.000000E+00  1.562500E+01  0.000000E+00
  0.000000E+00  1.601562E+01  0.000000E+00
  0.000000E+00  1.640625E+01  0.000000E+00
  0.000000E+00  1.679688E+01  0.000000E+00
  0.000000E+00  1.718750E+01  0.000000E+00
  0.000000E+00  1.757812E+01  0.000000E+00
  0.000000E+00  1.796875E+01  0.000000E+00
  0.000000E+00  1.835938E+01  0.000000E+00
  0.000000E+00  1.875000E+01  0.000000E+00
  0.000000E+00  1.914062E+01  0.000000E+00
  0.000000E+00  1.953125E+01  0.000000E+00
  0.000000E+00  1.992188E+01  0.000000E+00
  0.000000E+00  2.031250E+01  0.000000E+00
  0.000000E+00  2.070312E+01  0.000000E+00
  0.000000E+00  2.109375E+01  0.000000E+00
  0.000000E+00  2.148438E+01  0.000000E+00
  0.000000E+00  2.187500E+01  0.000000E+00
  0.000000E+00  2.226562E+01  0.000000E+00
  0.000000E+00  2.265625E+01  0.000000E+00
  0.000000E+00  2.304688E+01  0.000000E+00
  0.000000E+00  2.343750E+01  0.000000E+00
  0.000000E+00  2.382812E+01  0.000000E+00
  0.000000E+00  2.421875E+01  0.000000E+00
  0.000000E+00  2.460938E+01  0.000000E+00
  3.906250E-01  0.000000E+00  0.000000E+00
  3.906250E-01  3.906250E-01  0.000000E+00
  3.906250E-01  7.812500E-01  0.000000E+00
  3.906250E-01  1.171875E+00  0.000000E+00
  3.906250E-01  1.562500E+00  0.000000E+00
  3.906250E-01  1.953125E+00  0.000000E+00
  3.906250E-01  2.343750E+00  0.000000E+00
  3.906250E-01  2.734375E+00  0.000000E+00
  3.906250E-01  3.125000E+00  0.000000E+00
  3.906250E-01  3.515625E+00  0.000000E+00
  3.906250E-01  3.906250E+00  0.000000E+00
  3.906250E-01  4.296875E+00  0.000000E+00
  3.906250E-01  4.687500E+00  0.000000E+00
  3.906250E-01  5.078125E+00  0.000000E+00
  3.906250E-01  5.468750E+00  0.000000E+00
  3.906250E-01  5.859375E+00  0.000000E+00
  3.906250E-01  6.250000E+00  0.000000E+00
  3.906250E-01  6.640625E+00  0.000000E+00
  3.906250E-01  7.031250E+00  0.000000E+00
  3.906250E-01  7.421875E+00  0.000000E+00
  3.906250E-01  7.812500E+00  0.000000E+00
  3.906250E-01  8.203125E+00  0.000000E+00
  3.906250E-01  8.593750E+00  0.000000E+00
  3.906250E-01  8.984375E+00  0.000000E+00
  3.906250E-01  9.375000E+00  0.000000E+00
  3.906250E-01  9.765625E+00  0.000000E+00
  3.906250E-01  1.015625E+01  0.000000E+00
  3.906250E-01  1.054688E+01  0.000000E+00
  3.906250E-01  1.093750E+01  0.000000E+00
  3.906250E-01  1.132812E+01  0.000000E+00
  3.906250E-01  1.171875E+01  0.000000E+00
  3.906250E-01  1.210938E+01  0.000000E+00
  3.906250E-01  1.250000E+01  0.000000E+00
  3.906250E-01  1.289062E+01  0.000000E+00
  3.906250E-01  1.328125E+01  0.000000E+00
  3.906250E-01  1.367188E+01  0.000000E+00
  3.906250E-01  1.406250E+01  0.000000E+00
  3.906250E-01  1.445312E+01  0.000000E+00
  3.906250E-01  1.484375E+01  0.000000E+00
  3.906250E-01  1.523438E+01  0.000000E+00
  3.906250E-01  1.562500E+01  0.000000E+00
  3.906250E-01  1.601562E+01  0.000000E+00
  3.906250E-01  1.640625E+01  0.000000E+00
  3.906250E-01  1.679688E+01  0.000000E+00
  3.906250E-01  1.718750E+01  0.000000E+00
  3.906250E-01  1.757812E+01  0.000000E+00
  3.906250E-01  1.796875E+01  0.000000E+00
  3.906250E-01  1.835938E+01  0.000000E+00
  3.906250E-01  1.875000E+01  0.000000E+00
  3.906250E-01  1.914062E+01  0.000000E+00
  3.906250E-01  1.953125E+01  0.000000E+00
  3.906250E-01  1.992188E+01  0.000000E+00
  3.906250E-01  2.031250E+01  0.000000E+00
  3.906250E-01  2.070312E+01  0.000000E+00
  3.906250E-01  2.109375E+01  0.000000E+00
  3.906250E-01  2.148438E+01  0.000000E+00
  3.906250E-01  2.187500E+01  0.000000E+00
  3.906250E-01  2.226562E+01  0.000000E+00
  3.906250E-01  2.265625E+01  0.000000E+00
  3.906250E-01  2.304688E+01  0.000000E+00
  3.906250E-01  2.343750E+01  0.000000E+00
  3.906250E-01  2.382812E+01  0.000000E+00
  3.906250E-01  2.421875E+01  0.000000E+00
  3.906250E-01  2.460938E+01  0.000000E+00
  7.812500E-01  0.000000E+00  0.000000E+00
  7.812500E-01  3.906250E-01  0.000000E+00
  7.812500E-01  7.812500E-01  0.000000E+00
  7.812500E-01  1.171875E+00  0.000000E+00
  7.812500E-01  1.562500E+00  0.000000E+00
  7.812500E-01  1.953125E+00  0.000000E+00
  7.812500E-01  2.343750E+00  0.000000E+00
  7.812500E-01  2.734375E+00  0.000000E+00
  7.812500E-01  3.125000E+00  0.000000E+00
  7.812500E-01  3.515625E+00  0.000000E+00
  7.812500E-01  3.906250E+00  0.000000E+00
  7.812500E-01  4.296875E+00  0.000000E+00
  7.812500E-01  4.687500E+00  0.000000E+00
  7.812500E-01  5.078125E+00  0.000000E+00
  7.812500E-01  5.468750E+00  0.000000E+00
  7.812500E-01  5.859375E+00  0.000000E+00
  7.812500E-01  6.250000E+00  0.000000E+00
  7.812500E-01  6.640625E+00  0.000000E+00
  7.812500E-01  7.031250E+00  0.000000E+00
  7.812500E-01  7.421875E+00  0.000000E+00
  7.812500E-01  7.812500E+00  0.000000E+00
  7.812500E-01  8.203125E+00  0.000000E+00
  7.812500E-01  8.593750E+00  0.000000E+00
  7.812500E-01  8.984375E+00  0.000000E+00
  7.812500E-01  9.375000E+00  0.000000E+00
  7.812500E-01  9.765625E+00  0.000000E+00
  7.812500E-01  1.015625E+01  0.000000E+00
  7.812500E-01  1.054688E+01  0.000000E+00
  7.812500E-01  1.093750E+01  0.000000E+00
  7.812500E-01  1.132812E+01  0.000000E+00
  7.812500E-01  1.171875E+01  0.000000E+00
  7.812500E-01  1.210938E+01  0.000000E+00
  7.812500E-01  1.250000E+01  0.000000E+00
  7.812500E-01  1.289062E+01  0.000000E+00
  7.812500E-01  1.328125E+01  0.000000E+00
  7.812500E-01  1.367188E+01  0.000000E+00
  7.812500E-01  1.406250E+01  0.000000E+00
  7.812500E-01  1.445312E+01  0.000000E+00
  7.812500E-01  1.484375E+01  0.000000E+00
  7.812500E-01  1.523438E+01  0.000000E+00
  7.812500E-01  1.562500E+01  0.000000E+00
  7.812500E-01  1.601562E+01  0.000000E+00
  7.812500E-01  1.640625E+01  0.000000E+00
  7.812500E-01  1.679688E+01  0.000000E+00
  7.812500E-01  1.718750E+01  0.000000E+00
  7.812500E-01  1.757812E+01  0.000000E+00
  7.812500E-01  1.796875E+01  0.000000E+00
  7.812500E-01  1.835938E+01  0.000000E+00
  7.812500E-01  1.875000E+01  0.000000E+00
  7.812500E-01  1.914062E+01  0.000000E+00
  7.812500E-01  1.953125E+01  0.000000E+00
  7.812500E-01  1.992188E+01  0.000000E+00
  7.812500E-01  2.031250E+01  0.000000E+00
  7.812500E-01  2.070312E+01  0.000000E+00
  7.812500E-01  2.109375E+01  0.000000E+00
  7.812500E-01  2.148438E+01  0.000000E+00
  7.812500E-01  2.187500E+01  0.000000E+00
  7.812500E-01  2.226562E+01  0.000000E+00
  7.812500E-01  2.265625E+01  0.000000E+00
  7.812500E-01  2.304688E+01  0.000000E+00
  7.812500E-01  2.343750E+01  0.000000E+00
  7.812500E-01  2.382812E+01  0.000000E+00
  7.812500E-01  2.421875E+01  0.000000E+00
  7.812500E-01  2.460938E+01  0.000000E+00
  1.171875E+00  0.000000E+00  0.000000E+00
  1.171875E+00  3.906250E-01  0.000000E+00
  1.171875E+00  7.812500E-01  0.000000E+00
  1.171875E+00  1.171875E+00  0.000000E+00
  1.171875E+00  1.562500E+00  0.000000E+00
  1.171875E+00  1.953125E+00  0.000000E+00
  1.171875E+00  2.343750E+00  0.000000E+00
  1.171875E+00  2.734375E+00  0.000000E+00
  1.171875E+00  3.125000E+00  0.000000E+00
  1.171875E+00  3.515625E+00  0.000000E+00
  1.171875E+00  3.906250E+00  0.000000E+00
  1.171875E+00  4.296875E+00  0.000000E+00
  1.171875E+00  4.687500E+00  0.000000E+00
  1.171875E+00  5.078125E+00  0.000000E+00
  1.171875E+00  5.468750E+00  0.000000E+00
  1.171875E+00  5.859375E+00  0.000000E+00
  1.171875E+00  6.250000E+00  0.000000E+00
  1.171875E+00  6.640625E+00  0.000000E+00
  1.171875E+00  7.031250E+00  0.000000E+00
  1.171875E+00  7.421875E+00  0.000000E+00
  1.171875E+00  7.812500E+00  0.000000E+00
  1.171875E+00  8.203125E+00  0.000000E+00
  1.171875E+00  8.593750E+00  0.000000E+00
  1.171875E+00  8.984375E+00  0.000000E+00
  1.171875E+00  9.375000E+00  0.000000E+00
  1.171875E+00  9.765625E+00  0.000000E+00
  1.171875E+00  1.015625E+01  0.000000E+00
  1.171875E+00  1.054688E+01  0.000000E+00
  1.171875E+00  1.093750E+01  0.000000E+00
  1.171875E+00  1.132812E+01  0.000000E+00
  1.171875E+00  1.171875E+01  0.000000E+00
  1.171875E+00  1.210938E+01  0.000000E+00
  1.171875E+00  1.250000E+01  0.000000E+00
  1.171875E+00  1.289062E+01  0.000000E+00
  1.171875E+00  1.328125E+01  0.000000E+00
  1.171875E+00  1.367188E+01  0.000000E+00
  1.171875E+00  1.406250E+01  0.000000E+00
  1.171875E+00  1.445312E+01  0.000000E+00
[...]
POINT_DATA   4096
SCALARS CON  float  1
LOOKUP_TABLE default
  4.695220E-01
  4.688577E-01
  4.717922E-01
  4.701763E-01
  4.718229E-01
  4.692137E-01
  4.705329E-01
  4.682173E-01
  4.700847E-01
  4.681567E-01
  4.700542E-01
  4.679139E-01
  4.696630E-01
  4.676985E-01
  4.699750E-01
  4.686621E-01
  4.713720E-01
  4.700123E-01
  4.721431E-01
  4.698330E-01
  4.709187E-01
  4.677446E-01
  4.683485E-01
  4.651774E-01
  4.662691E-01
  4.639566E-01
  4.660475E-01
  4.645786E-01
  4.671105E-01
  4.656112E-01
  4.678016E-01
  4.659519E-01
  4.680412E-01
  4.663879E-01
  4.687799E-01
  4.672374E-01
  4.693441E-01
  4.671411E-01
  4.684394E-01
  4.655763E-01
  4.665785E-01
  4.638531E-01
  4.653837E-01
  4.634905E-01
  4.660540E-01
  4.652409E-01
  4.686841E-01
  4.682367E-01
  4.712891E-01
  4.697075E-01
  4.712521E-01
  4.684208E-01
  4.695761E-01
  4.674477E-01
  4.700777E-01
  4.694400E-01
  4.727630E-01
  4.715797E-01
  4.732924E-01
  4.701406E-01
  4.704113E-01
  4.669767E-01
  4.682159E-01
  4.665333E-01
  4.714275E-01
  4.711979E-01
  4.729891E-01
  4.715039E-01
  4.717747E-01
  4.691509E-01
  4.691303E-01
  4.671229E-01
  4.682666E-01
  4.673995E-01
  4.691887E-01
  4.683372E-01
  4.697378E-01
  4.684994E-01
  4.698378E-01
  4.689148E-01
  4.707178E-01
  4.700523E-01
  4.716400E-01
  4.702634E-01
  4.708703E-01
  4.685932E-01
  4.686819E-01
  4.664058E-01
  4.669714E-01
  4.654867E-01
  4.669542E-01
  4.662809E-01
  4.682900E-01
  4.677549E-01
  4.694570E-01
  4.682636E-01
  4.691810E-01
  4.673561E-01
  4.680057E-01
  4.663139E-01
  4.673436E-01
  4.660161E-01
  4.671667E-01
  4.656484E-01
  4.664243E-01
  4.646062E-01
  4.654163E-01
  4.641004E-01
  4.658197E-01
  4.655715E-01
  4.681585E-01
  4.682380E-01
  4.704430E-01
  4.695509E-01
  4.706121E-01
  4.689625E-01
  4.700708E-01
  4.692892E-01
  4.716378E-01
  4.717644E-01
  4.741114E-01
  4.732030E-01
  4.738843E-01
  4.713929E-01
  4.712357E-01
  4.689598E-01
  4.699251E-01
  4.691745E-01
  4.677814E-01
  4.692414E-01
  4.709472E-01
  4.711931E-01
  4.710912E-01
  4.697796E-01
  4.689907E-01
  4.679866E-01
  4.681369E-01
  4.681184E-01
  4.688370E-01
  4.688510E-01
  4.692843E-01
  4.690501E-01
  4.695187E-01
  4.695998E-01
  4.704373E-01
  4.706431E-01
  4.711646E-01
  4.706159E-01
  4.701334E-01
  4.686179E-01
  4.674815E-01
  4.658058E-01
  4.650453E-01
  4.641759E-01
  4.644247E-01
  4.644861E-01
  4.653516E-01
  4.656226E-01
  4.663762E-01
  4.664183E-01
  4.670195E-01
  4.670481E-01
  4.676732E-01
  4.675759E-01
  4.677883E-01
  4.670064E-01
  4.664377E-01
  4.650330E-01
  4.642235E-01
  4.630761E-01
  4.630113E-01
  4.629774E-01
  4.641929E-01
  4.653383E-01
  4.673300E-01
  4.685867E-01
  4.699208E-01
  4.699155E-01
  4.698321E-01
  4.688481E-01
  4.686960E-01
  4.686312E-01
  4.699635E-01
  4.711794E-01
  4.728374E-01
  4.730805E-01
  4.727359E-01
  4.707292E-01
  4.688331E-01
  4.666490E-01
  4.660483E-01
  4.661077E-01
  4.692425E-01
  4.711356E-01
  4.713222E-01
  4.717718E-01
  4.700921E-01
  4.690233E-01
  4.668123E-01
  4.663976E-01
  4.656875E-01
  4.669276E-01
  4.673417E-01
  4.688387E-01
  4.687817E-01
  4.695562E-01
  4.690337E-01
  4.698481E-01
  4.697443E-01
  4.709656E-01
  4.708560E-01
  4.714889E-01
  4.703576E-01
  4.699061E-01
  4.680155E-01
  4.673554E-01
  4.658117E-01
  4.658980E-01
  4.652869E-01
  4.662908E-01
  4.664067E-01
  4.677943E-01
  4.678492E-01
  4.687420E-01
  4.680343E-01
  4.681810E-01
  4.670231E-01
  4.671424E-01
  4.662804E-01
  4.667534E-01
  4.660371E-01
  4.663514E-01
  4.653082E-01
  4.654128E-01
  4.645356E-01
  4.652574E-01
  4.652910E-01
  4.668969E-01
  4.674479E-01
  4.689896E-01
  4.689009E-01
  4.694763E-01
  4.685156E-01
  4.687408E-01
  4.681752E-01
  4.694056E-01
  4.699742E-01
  4.718542E-01
  4.721575E-01
  4.728504E-01
  4.714808E-01
  4.706862E-01
  4.686112E-01
  4.681653E-01
  4.673511E-01
  4.685930E-01
  4.655986E-01
  4.687388E-01
  4.687864E-01
  4.707168E-01
  4.689084E-01
  4.691771E-01
  4.665867E-01
  4.671701E-01
  4.656824E-01
  4.675385E-01
  4.669172E-01
  4.689832E-01
  4.680614E-01
  4.697029E-01
  4.685948E-01
  4.704120E-01
  4.696758E-01
  4.717241E-01
  4.707727E-01
  4.720549E-01
  4.699370E-01
  4.699879E-01
  4.669506E-01
  4.666664E-01
  4.639572E-01
  4.645400E-01
  4.629671E-01
  4.646423E-01
  4.638715E-01
  4.659558E-01
  4.652566E-01
  4.672317E-01
  4.663987E-01
  4.682806E-01
  4.673403E-01
  4.689763E-01
  4.675547E-01
  4.684921E-01
  4.663115E-01
  4.666719E-01
  4.643241E-01
  4.650416E-01
  4.635252E-01
  4.653473E-01
  4.649196E-01
  4.675224E-01
  4.673501E-01
  4.695989E-01
  4.685482E-01
  4.696521E-01
  4.675748E-01
  4.681682E-01
  4.663441E-01
  4.679043E-01
  4.673739E-01
  4.699577E-01
  4.696311E-01
  4.713688E-01
  4.693807E-01
  4.692733E-01
  4.660265E-01
  4.658208E-01
  4.637507E-01
  4.655769E-01
  4.674365E-01
  4.702281E-01
  4.691018E-01
  4.707255E-01
  4.680334E-01
  4.683249E-01
  4.651256E-01
  4.659838E-01
  4.641846E-01
  4.666587E-01
  4.660182E-01
  4.688131E-01
  4.677428E-01
  4.698192E-01
  4.682787E-01
  4.704221E-01
  4.693674E-01
  4.719806E-01
  4.709059E-01
  4.727878E-01
  4.704327E-01
  4.709372E-01
  4.676052E-01
  4.678381E-01
  4.649533E-01
  4.661377E-01
  4.644115E-01
  4.666988E-01
  4.658269E-01
  4.685814E-01
  4.677037E-01
  4.699889E-01
  4.683319E-01
  4.698075E-01
  4.676043E-01
  4.689519E-01
  4.669651E-01
  4.686231E-01
  4.667839E-01
  4.683386E-01
  4.662811E-01
  4.677573E-01
  4.659470E-01
  4.679746E-01
  4.667929E-01
  4.692239E-01
  4.680078E-01
  4.699460E-01
  4.679533E-01
  4.691274E-01
  4.666915E-01
  4.679505E-01
  4.661393E-01
  4.683429E-01
  4.674074E-01
  4.700215E-01
  4.688192E-01
  4.705742E-01
  4.682664E-01
  4.691134E-01
  4.664465E-01
  4.676172E-01
  4.658482E-01
  4.681866E-01
  4.643043E-01
  4.674664E-01
  4.668427E-01
  4.693513E-01
  4.674810E-01
  4.687417E-01
  4.661711E-01
  4.675180E-01
  4.656556E-01
  4.678920E-01
  4.666506E-01
  4.690272E-01
  4.675582E-01
  4.696661E-01
  4.681965E-01
  4.706563E-01
  4.696872E-01
  4.724153E-01
  4.711421E-01
  4.728909E-01
  4.701714E-01
  4.704450E-01
  4.667017E-01
  4.667278E-01
  4.635626E-01
  4.647683E-01
  4.629966E-01
  4.654198E-01
  4.644383E-01
  4.671767E-01
  4.661626E-01
  4.687230E-01
  4.675448E-01
  4.699933E-01
  4.686694E-01
  4.707989E-01
  4.688966E-01
  4.702393E-01
  4.675411E-01
  4.683537E-01
  4.656174E-01
  4.669470E-01
  4.651397E-01
  4.675122E-01
  4.665280E-01
  4.692601E-01
  4.680924E-01
  4.701850E-01
  4.681249E-01
  4.693265E-01
  4.666271E-01
  4.676372E-01
  4.652784E-01
  4.670796E-01
  4.657025E-01
  4.683013E-01
  4.671858E-01
  4.693403E-01
  4.671869E-01
  4.680883E-01
  4.649747E-01
  4.656418E-01
  4.631861E-01
  4.652084E-01
  4.665490E-01
  4.686662E-01
  4.675617E-01
  4.692786E-01
  4.674115E-01
  4.683272E-01
  4.660273E-01
  4.671377E-01
  4.655989E-01
  4.676692E-01
  4.668228E-01
  4.690318E-01
  4.678359E-01
  4.695754E-01
  4.682160E-01
  4.702931E-01
  4.695893E-01
  4.721707E-01
  4.713451E-01
  4.729968E-01
  4.706762E-01
  4.708209E-01
  4.675599E-01
  4.676537E-01
  4.651796E-01
  4.665560E-01
  4.654311E-01
  4.678893E-01
  4.674103E-01
  4.700436E-01
  4.693085E-01
  4.713470E-01
  4.698374E-01
  4.711399E-01
  4.691418E-01
  4.702987E-01
  4.684209E-01
  4.697646E-01
  4.679578E-01
  4.692238E-01
  4.673265E-01
  4.686819E-01
  4.671428E-01
  4.690224E-01
  4.679299E-01
  4.699416E-01
  4.685751E-01
  4.700040E-01
  4.679725E-01
  4.689030E-01
  4.667184E-01
  4.678969E-01
  4.662781E-01
  4.681384E-01
  4.670614E-01
  4.691161E-01
  4.678241E-01
  4.693665E-01
  4.674866E-01
  4.685823E-01
  4.665212E-01
  4.677209E-01
  4.660052E-01
  4.677140E-01
  4.636259E-01
  4.657772E-01
  4.656592E-01
  4.680032E-01
  4.674828E-01
  4.691110E-01
  4.679199E-01
  4.691704E-01
  4.679227E-01
  4.692744E-01
  4.680762E-01
  4.693317E-01
  4.679852E-01
  4.692547E-01
  4.682540E-01
  4.701707E-01
  4.698484E-01
  4.720778E-01
  4.713869E-01
  4.725195E-01
  4.702881E-01
  4.699508E-01
  4.668472E-01
  4.665478E-01
  4.643579E-01
  4.654932E-01
  4.647499E-01
  4.669039E-01
  4.665560E-01
  4.685763E-01
  4.678541E-01
  4.695645E-01
  4.687546E-01
  4.705427E-01
  4.697594E-01
  4.712895E-01
  4.698642E-01
  4.704827E-01
  4.681709E-01
  4.682703E-01
  4.660328E-01
  4.667990E-01
  4.655914E-01
  4.673982E-01
  4.669197E-01
  4.689717E-01
  4.682648E-01
  4.697584E-01
  4.683565E-01
  4.691989E-01
  4.673351E-01
  4.680130E-01
  4.663369E-01
  4.675215E-01
  4.665226E-01
  4.683099E-01
  4.675776E-01
  4.691276E-01
  4.676678E-01
  4.682147E-01
  4.658277E-01
  4.658852E-01
  4.636773E-01
  4.645790E-01
  4.659702E-01
  4.671133E-01
  4.666494E-01
  4.681538E-01
  4.676644E-01
  4.688147E-01
  4.678810E-01
  4.687624E-01
  4.678499E-01
  4.689353E-01
  4.681730E-01
  4.691824E-01
  4.681611E-01
  4.689790E-01
  4.681172E-01
  4.695325E-01
  4.694754E-01
  4.714419E-01
  4.712504E-01
  4.722687E-01
  4.706077E-01
  4.702244E-01
  4.678184E-01
  4.676398E-01
  4.662610E-01
  4.674857E-01
  4.673665E-01
  4.693483E-01
  4.693866E-01
  4.710420E-01
  4.704750E-01
  4.714401E-01
  4.702458E-01
  4.707528E-01
  4.693291E-01
  4.698234E-01
  4.685106E-01
  4.691072E-01
  4.678027E-01
  4.683424E-01
  4.670445E-01
  4.677851E-01
  4.669040E-01
  4.681517E-01
  4.676611E-01
  4.690176E-01
  4.683216E-01
  4.692639E-01
  4.681235E-01
  4.687609E-01
  4.675623E-01
  4.684094E-01
  4.676174E-01
  4.689174E-01
  4.684399E-01
  4.697755E-01
  4.690308E-01
  4.699013E-01
  4.686600E-01
  4.691329E-01
  4.676365E-01
  4.679843E-01
  4.664961E-01
  4.670360E-01
  4.632227E-01
  4.646746E-01
  4.650230E-01
  4.671926E-01
  4.676603E-01
  4.694366E-01
  4.692182E-01
  4.702548E-01
  4.694009E-01
  4.699519E-01
  4.687441E-01
  4.690731E-01
  4.678418E-01
  4.684475E-01
  4.678320E-01
  4.692736E-01
  4.694248E-01
  4.712035E-01
  4.710020E-01
  4.717332E-01
  4.700874E-01
  4.694827E-01
  4.671156E-01
  4.666874E-01
  4.653195E-01
  4.663053E-01
  4.662106E-01
  4.678826E-01
  4.677511E-01
  4.688766E-01
  4.681089E-01
  4.688926E-01
  4.682193E-01
  4.693736E-01
  4.689979E-01
  4.700526E-01
  4.690729E-01
  4.691960E-01
  4.673302E-01
  4.669927E-01
  4.652935E-01
  4.656877E-01
  4.650090E-01
  4.663653E-01
  4.663255E-01
  4.678974E-01
  4.677015E-01
  4.688759E-01
  4.681775E-01
  4.688581E-01
  4.677753E-01
  4.682789E-01
  4.672995E-01
  4.681833E-01
  4.677412E-01
  4.690978E-01
  4.688169E-01
  4.698600E-01
  4.687971E-01
  4.687829E-01
  4.667108E-01
  4.660779E-01
  4.640177E-01
  4.640767E-01
  4.659704E-01
  4.667277E-01
  4.664196E-01
  4.677250E-01
  4.676477E-01
  4.688015E-01
  4.683108E-01
  4.690122E-01
  4.682084E-01
  4.687695E-01
  4.679052E-01
  4.683870E-01
  4.674403E-01
  4.679842E-01
  4.674113E-01
  4.686598E-01
  4.688994E-01
  4.706699E-01
  4.707772E-01
  4.716632E-01
  4.704053E-01
  4.699836E-01
  4.680205E-01
  4.677753E-01
  4.667531E-01
  4.677802E-01
  4.678456E-01
  4.694187E-01
  4.694134E-01
  4.704672E-01
  4.697639E-01
  4.701741E-01
  4.690121E-01
  4.691843E-01
  4.679812E-01
  4.682511E-01
  4.672050E-01
  4.676131E-01
  4.666488E-01
  4.671116E-01
  4.662542E-01
  4.669421E-01
  4.664169E-01
  4.674437E-01
  4.671285E-01
  4.681480E-01
  4.676179E-01
  4.683148E-01
  4.674919E-01
  4.680464E-01
  4.673012E-01
  4.681526E-01
  4.678413E-01
  4.691080E-01
  4.690120E-01
  4.701699E-01
  4.696480E-01
  4.702062E-01
  4.691098E-01
  4.692612E-01
  4.679509E-01
  4.680246E-01
  4.667280E-01
  4.669363E-01
  4.638784E-01
  4.651290E-01
  4.653792E-01
  4.671713E-01
  4.675425E-01
  4.690583E-01
  4.688611E-01
  4.696647E-01
  4.687597E-01
  4.689783E-01
  4.676944E-01
  4.678014E-01
  4.667189E-01
  4.673503E-01
  4.670488E-01
  4.685450E-01
  4.689300E-01
  4.706594E-01
  4.706478E-01
  4.713707E-01
  4.699923E-01
  4.694079E-01
  4.672257E-01
  4.666265E-01
  4.652063E-01
  4.658199E-01
  4.655616E-01
  4.668469E-01
  4.666085E-01
  4.674453E-01
  4.666912E-01
  4.673166E-01
  4.667774E-01
  4.678565E-01
  4.676447E-01
  4.686151E-01
  4.677972E-01
  4.678911E-01
  4.663150E-01
  4.661109E-01
  4.648210E-01
  4.653508E-01
  4.649381E-01
  4.661757E-01
  4.661144E-01
  4.673326E-01
  4.669937E-01
  4.678283E-01
  4.671240E-01
  4.676873E-01
  4.668510E-01
  4.674540E-01
  4.668401E-01
  4.678078E-01
  4.675865E-01
  4.688039E-01
  4.685247E-01
  4.692986E-01
  4.682545E-01
  4.681432E-01
  4.663647E-01
  4.659114E-01
  4.643067E-01
  4.645106E-01
  4.674151E-01
  4.679480E-01
  4.674573E-01
  4.680577E-01
  4.676070E-01
  4.681318E-01
  4.674874E-01
  4.677838E-01
  4.669787E-01
  4.672306E-01
  4.664760E-01
  4.668321E-01
  4.662405E-01
  4.668866E-01
  4.667818E-01
  4.680850E-01
  4.686265E-01
  4.702732E-01
  4.705922E-01
  4.713785E-01
  4.704032E-01
  4.698833E-01
  4.680505E-01
  4.674086E-01
  4.661738E-01
  4.665564E-01
  4.663579E-01
  4.674499E-01
  4.674974E-01
  4.684378E-01
  4.681078E-01
  4.686109E-01
  4.678856E-01
  4.680805E-01
  4.671575E-01
  4.672835E-01
  4.664233E-01
  4.667192E-01
  4.660919E-01
  4.666436E-01
  4.662715E-01
  4.670560E-01
  4.668498E-01
  4.676643E-01
  4.672966E-01
  4.677677E-01
  4.669725E-01
  4.670900E-01
  4.661674E-01
  4.664652E-01
  4.660074E-01
  4.669296E-01
  4.670606E-01
  4.683266E-01
  4.684080E-01
  4.692191E-01
  4.685957E-01
  4.687239E-01
  4.677023E-01
  4.678353E-01
  4.671372E-01
  4.676878E-01
  4.672800E-01
  4.679027E-01
  4.660357E-01
  4.668463E-01
  4.670046E-01
  4.677002E-01
  4.676879E-01
  4.681795E-01
  4.679052E-01
  4.680522E-01
  4.673769E-01
  4.671603E-01
  4.662919E-01
  4.661694E-01
  4.657273E-01
  4.663057E-01
  4.666857E-01
  4.679993E-01
  4.688225E-01
  4.701377E-01
  4.704619E-01
  4.708275E-01
  4.699178E-01
  4.690379E-01
  4.671997E-01
  4.659878E-01
  4.645176E-01
  4.642241E-01
  4.638651E-01
  4.644792E-01
  4.645928E-01
  4.652853E-01
  4.653308E-01
  4.660669E-01
  4.663442E-01
  4.673414E-01
  4.676334E-01
  4.682124E-01
  4.677066E-01
  4.673974E-01
  4.662859E-01
  4.659076E-01
  4.652679E-01
  4.656642E-01
  4.657514E-01
  4.665360E-01
  4.665640E-01
  4.669379E-01
  4.664312E-01
  4.663882E-01
  4.657375E-01
  4.658473E-01
  4.655578E-01
  4.660950E-01
  4.661645E-01
  4.669011E-01
  4.669695E-01
  4.675042E-01
  4.672031E-01
  4.672725E-01
  4.665240E-01
  4.663009E-01
  4.655280E-01
  4.655787E-01
  4.652964E-01
  4.658906E-01
  4.699874E-01
  4.697568E-01
  4.693731E-01
  4.685427E-01
  4.679029E-01
  4.670834E-01
  4.665979E-01
  4.659837E-01
  4.657186E-01
  4.653412E-01
  4.653382E-01
  4.652533E-01
  4.655808E-01
  4.658765E-01
  4.666346E-01
  4.673680E-01
  4.684660E-01
  4.692933E-01
  4.701061E-01
  4.702283E-01
  4.700212E-01
  4.690533E-01
  4.679929E-01
  4.666574E-01
  4.658025E-01
  4.651406E-01
  4.651889E-01
  4.654006E-01
  4.661105E-01
  4.666959E-01
  4.674899E-01
  4.678947E-01
  4.682805E-01
  4.681218E-01
  4.679169E-01
  4.673035E-01
  4.669150E-01
  4.664342E-01
  4.664336E-01
  4.664634E-01
  4.669453E-01
  4.672965E-01
  4.678358E-01
  4.679225E-01
  4.678942E-01
  4.672388E-01
  4.665254E-01
  4.655056E-01
  4.649341E-01
  4.645759E-01
  4.650021E-01
  4.656565E-01
  4.667672E-01
  4.675381E-01
  4.681546E-01
  4.680046E-01
  4.676318E-01
  4.668284E-01
  4.664214E-01
  4.662321E-01
  4.668363E-01
  4.676299E-01
  4.687830E-01
  4.694879E-01
  4.685705E-01
  4.683128E-01
  4.687976E-01
  4.679037E-01
  4.679936E-01
  4.669904E-01
  4.671437E-01
  4.662090E-01
  4.663392E-01
  4.653286E-01
  4.654718E-01
  4.647064E-01
  4.653675E-01
  4.652901E-01
  4.666097E-01
  4.669638E-01
  4.683810E-01
  4.685062E-01
  4.694429E-01
  4.689121E-01
  4.690719E-01
  4.677147E-01
  4.671386E-01
  4.653378E-01
  4.647833E-01
  4.634952E-01
  4.637780E-01
  4.633732E-01
  4.643543E-01
  4.643990E-01
  4.656716E-01
  4.659639E-01
  4.674384E-01
  4.677404E-01
  4.688516E-01
  4.683702E-01
  4.684597E-01
  4.670756E-01
  4.667380E-01
  4.655670E-01
  4.659630E-01
  4.656964E-01
  4.667544E-01
  4.666210E-01
  4.672464E-01
  4.663314E-01
  4.661896E-01
  4.648670E-01
  4.648558E-01
  4.641471E-01
  4.649848E-01
  4.650395E-01
  4.663034E-01
  4.663552E-01
  4.672590E-01
  4.667630E-01
  4.671153E-01
  4.662104E-01
  4.663941E-01
  4.656137E-01
  4.662089E-01
  4.660310E-01
  4.672269E-01
  4.674135E-01
  4.720010E-01
  4.705592E-01
  4.706600E-01
  4.683494E-01
  4.680820E-01
  4.658621E-01
  4.659867E-01
  4.642855E-01
  4.649356E-01
  4.637181E-01
  4.648068E-01
  4.639878E-01
  4.654257E-01
  4.648839E-01
  4.665060E-01
  4.660494E-01
  4.676666E-01
  4.671230E-01
  4.685627E-01
  4.677283E-01
  4.687531E-01
  4.674183E-01
  4.679593E-01
  4.662955E-01
  4.667762E-01
  4.653558E-01
  4.663273E-01
  4.655287E-01
  4.671216E-01
  4.668216E-01
  4.686772E-01
  4.683070E-01
  4.697171E-01
  4.685929E-01
  4.691370E-01
  4.673084E-01
  4.675483E-01
  4.659130E-01
  4.667628E-01
  4.659400E-01
  4.675441E-01
  4.671852E-01
  4.688051E-01
  4.679631E-01
  4.686892E-01
  4.667840E-01
  4.666288E-01
  4.643692E-01
  4.645773E-01
  4.633341E-01
  4.648984E-01
  4.649076E-01
  4.672193E-01
  4.672601E-01
  4.689352E-01
  4.679506E-01
  4.686197E-01
  4.670406E-01
  4.677599E-01
  4.668567E-01
  4.686036E-01
  4.686525E-01
  4.708671E-01
  4.706775E-01
  4.696923E-01
  4.683663E-01
  4.693568E-01
  4.674060E-01
  4.680048E-01
  4.659877E-01
  4.667574E-01
  4.649686E-01
  4.658916E-01
  4.641842E-01
  4.652336E-01
  4.638209E-01
  4.653495E-01
  4.644736E-01
  4.663957E-01
  4.656218E-01
  4.673550E-01
  4.662422E-01
  4.676618E-01
  4.663471E-01
  4.676302E-01
  4.661359E-01
  4.671476E-01
  4.653689E-01
  4.662408E-01
  4.645805E-01
  4.658074E-01
  4.646020E-01
  4.662420E-01
  4.653580E-01
  4.672680E-01
  4.666376E-01
  4.687178E-01
  4.680082E-01
  4.696125E-01
  4.680487E-01
  4.686635E-01
  4.663567E-01
  4.668052E-01
  4.650047E-01
  4.664273E-01
  4.656465E-01
  4.676868E-01
  4.668522E-01
  4.681950E-01
  4.663289E-01
  4.667550E-01
  4.644746E-01
  4.651496E-01
  4.636604E-01
  4.653446E-01
  4.647213E-01
  4.668927E-01
  4.663412E-01
  4.682889E-01
  4.673822E-01
  4.689545E-01
  4.676933E-01
  4.689543E-01
  4.674836E-01
  4.687242E-01
  4.674620E-01
  4.690554E-01
  4.680855E-01
  4.720877E-01
  4.700543E-01
  4.704836E-01
  4.678258E-01
  4.679848E-01
  4.654239E-01
  4.659548E-01
  4.639066E-01
  4.649764E-01
  4.634291E-01
  4.649384E-01
  4.637565E-01
  4.655325E-01
  4.644859E-01
  4.662507E-01
  4.650767E-01
  4.666757E-01
  4.653886E-01
  4.669818E-01
  4.657813E-01
  4.674808E-01
  4.663275E-01
  4.679823E-01
  4.667220E-01
  4.682734E-01
  4.669720E-01
  4.685710E-01
  4.674008E-01
  4.691854E-01
  4.681967E-01
  4.700599E-01
  4.689251E-01
  4.703364E-01
  4.684833E-01
  4.691020E-01
  4.666673E-01
  4.671643E-01
  4.651579E-01
  4.665220E-01
  4.655611E-01
  4.678397E-01
  4.673961E-01
  4.696313E-01
  4.685602E-01
  4.697265E-01
  4.674462E-01
  4.676500E-01
  4.649924E-01
  4.655521E-01
  4.638707E-01
  4.657029E-01
  4.651967E-01
  4.677975E-01
  4.675217E-01
  4.698660E-01
  4.690237E-01
  4.707181E-01
  4.693523E-01
  4.707920E-01
  4.694779E-01
  4.711915E-01
  4.701892E-01
  4.720339E-01
  4.708213E-01
  4.688606E-01
  4.676705E-01
  4.686009E-01
  4.671709E-01
  4.678818E-01
  4.663896E-01
  4.671778E-01
  4.657773E-01
  4.665651E-01
  4.650826E-01
  4.658310E-01
  4.644901E-01
  4.655943E-01
  4.647060E-01
  4.661580E-01
  4.653594E-01
  4.666430E-01
  4.655684E-01
  4.666603E-01
  4.655784E-01
  4.667997E-01
  4.658494E-01
  4.671032E-01
  4.660945E-01
  4.672872E-01
  4.662854E-01
  4.675356E-01
  4.665607E-01
  4.677563E-01
  4.666921E-01
  4.678773E-01
  4.669495E-01
  4.683448E-01
  4.675035E-01
  4.686711E-01
  4.672607E-01
  4.677198E-01
  4.658090E-01
  4.662826E-01
  4.649864E-01
  4.664700E-01
  4.661685E-01
  4.682070E-01
  4.677840E-01
  4.690856E-01
  4.676340E-01
  4.680416E-01
  4.661593E-01
  4.666924E-01