# vtk DataFile Version 2.0
title
ASCII
DATASET STRUCTURED_GRID
DIMENSIONS   64   64    1
POINTS   4096  float
  0.000000E+00  0.000000E+00  0.000000E+00
  0.000000E+00  3.906250E-01  0.000000E+00
  0.000000E+00  7.812500E-01  0.000000E+00
  0.000000E+00  1.171875E+00  0.000000E+00
  0.000000E+00  1.562500E+00  0.000000E+00
  0.000000E+00  1.953125E+00  0.000000E+00
  0.000000E+00  2.343750E+00  0.000000E+00
  0.000000E+00  2.734375E+00  0.000000E+00
  0.000000E+00  3.125000E+00  0.000000E+00
  0.000000E+00  3.515625E+00  0.000000E+00
  0.000000E+00  3.906250E+00  0.000000E+00
  0.000000E+00  4.296875E+00  0.000000E+00
  0.000000E+00  4.687500E+00  0.000000E+00
  0.000000E+00  5.078125E+00  0.000000E+00
  0.000000E+00  5.468750E+00  0.000000E+00
  0.000000E+00  5.859375E+00  0.000000E+00
  0.000000E+00  6.250000E+00  0.000000E+00
  0.000000E+00  6.640625E+00  0.000000E+00
  0.000000E+00  7.031250E+00  0.000000E+00
  0.000000E+00  7.421875E+00  0.000000E+00
  0.000000E+00  7.812500E+00  0.000000E+00
  0.000000E+00  8.203125E+00  0.000000E+00
  0.000000E+00  8.593750E+00  0.000000E+00
  0.000000E+00  8.984375E+00  0.000000E+00
  0.000000E+00  9.375000E+00  0.000000E+00
  0.000000E+00  9.765625E+00  0.000000E+00
  0.000000E+00  1.015625E+01  0.000000E+00
  0.000000E+00  1.054688E+01  0.000000E+00
  0.000000E+00  1.093750E+01  0.000000E+00
  0.000000E+00  1.132812E+01  0.000000E+00
  0.000000E+00  1.171875E+01  0.000000E+00
  0.000000E+00  1.210938E+01  0.000000E+00
  0.000000E+00  1.250000E+01  0.000000E+00
  0.000000E+00  1.289062E+01  0.000000E+00
  0.000000E+00  1.328125E+01  0.000000E+00
  0.000000E+00  1.367188E+01  0.000000E+00
  0.000000E+00  1.406250E+01  0.000000E+00
  0.000000E+00  1.445312E+01  0.000000E+00
  0.000000E+00  1.484375E+01  0.000000E+00
  0.000000E+00  1.523438E+01  0.000000E+00
  0.000000E+00  1.562500E+01  0.000000E+00
  0.000000E+00  1.601562E+01  0.000000E+00
  0.000000E+00  1.640625E+01  0.000000E+00
  0.000000E+00  1.679688E+01  0.000000E+00
  0.000000E+00  1.718750E+01  0.000000E+00
  0.000000E+00  1.757812E+01  0.000000E+00
  0.000000E+00  1.796875E+01  0.000000E+00
  0.000000E+00  1.835938E+01  0.000000E+00
  0.000000E+00  1.875000E+01  0.000000E+00
  0.000000E+00  1.914062E+01  0.000000E+00
  0.000000E+00  1.953125E+01  0.000000E+00
  0.000000E+00  1.992188E+01  0.000000E+00
  0.000000E+00  2.031250E+01  0.000000E+00
  0.000000E+00  2.070312E+01  0.000000E+00
  0.000000E+00  2.109375E+01  0.000000E+00
  0.000000E+00  2.148438E+01  0.000000E+00
  0.000000E+00  2.187500E+01  0.000000E+00
  0.000000E+00  2.226562E+01  0.000000E+00
  0.000000E+00  2.265625E+01  0.000000E+00
  0.000000E+00  2.304688E+01  0.000000E+00
  0.000000E+00  2.343750E+01  0.000000E+00
  0.000000E+00  2.382812E+01  0.000000E+00
  0.000000E+00  2.421875E+01  0.000000E+00
  0.000000E+00  2.460938E+01  0.000000E+00
  3.906250E-01  0.000000E+00  0.000000E+00
  3.906250E-01  3.906250E-01  0.000000E+00
  3.906250E-01  7.812500E-01  0.000000E+00
  3.906250E-01  1.171875E+00  0.000000E+00
  3.906250E-01  1.562500E+00  0.000000E+00
  3.906250E-01  1.953125E+00  0.000000E+00
  3.906250E-01  2.343750E+00  0.000000E+00
  3.906250E-01  2.734375E+00  0.000000E+00
  3.906250E-01  3.125000E+00  0.000000E+00
  3.906250E-01  3.515625E+00  0.000000E+00
  3.906250E-01  3.906250E+00  0.000000E+00
  3.906250E-01  4.296875E+00  0.000000E+00
  3.906250E-01  4.687500E+00  0.000000E+00
  3.906250E-01  5.078125E+00  0.000000E+00
  3.906250E-01  5.468750E+00  0.000000E+00
  3.906250E-01  5.859375E+00  0.000000E+00
  3.906250E-01  6.250000E+00  0.000000E+00
  3.906250E-01  6.640625E+00  0.000000E+00
  3.906250E-01  7.031250E+00  0.000000E+00
  3.906250E-01  7.421875E+00  0.000000E+00
  3.906250E-01  7.812500E+00  0.000000E+00
  3.906250E-01  8.203125E+00  0.000000E+00
  3.906250E-01  8.593750E+00  0.000000E+00
  3.906250E-01  8.984375E+00  0.000000E+00
  3.906250E-01  9.375000E+00  0.000000E+00
  3.906250E-01  9.765625E+00  0.000000E+00
  3.906250E-01  1.015625E+01  0.000000E+00
  3.906250E-01  1.054688E+01  0.000000E+00
  3.906250E-01  1.093750E+01  0.000000E+00
  3.906250E-01  1.132812E+01  0.000000E+00
  3.906250E-01  1.171875E+01  0.000000E+00
  3.906250E-01  1.210938E+01  0.000000E+00
  3.906250E-01  1.250000E+01  0.000000E+00
  3.906250E-01  1.289062E+01  0.000000E+00
  3.906250E-01  1.328125E+01  0.000000E+00
  3.906250E-01  1.367188E+01  0.000000E+00
  3.906250E-01  1.406250E+01  0.000000E+00
  3.906250E-01  1.445312E+01  0.000000E+00
  3.906250E-01  1.484375E+01  0.000000E+00
  3.906250E-01  1.523438E+01  0.000000E+00
  3.906250E-01  1.562500E+01  0.000000E+00
  3.906250E-01  1.601562E+01  0.000000E+00
  3.906250E-01  1.640625E+01  0.000000E+00
  3.906250E-01  1.679688E+01  0.000000E+00
  3.906250E-01  1.718750E+01  0.000000E+00
  3.906250E-01  1.757812E+01  0.000000E+00
  3.906250E-01  1.796875E+01  0.000000E+00
  3.906250E-01  1.835938E+01  0.000000E+00
  3.906250E-01  1.875000E+01  0.000000E+00
  3.906250E-01  1.914062E+01  0.000000E+00
  3.906250E-01  1.953125E+01  0.000000E+00
  3.906250E-01  1.992188E+01  0.000000E+00
  3.906250E-01  2.031250E+01  0.000000E+00
  3.906250E-01  2.070312E+01  0.000000E+00
  3.906250E-01  2.109375E+01  0.000000E+00
  3.906250E-01  2.148438E+01  0.000000E+00
  3.906250E-01  2.187500E+01  0.000000E+00
  3.906250E-01  2.226562E+01  0.000000E+00
  3.906250E-01  2.265625E+01  0.000000E+00
  3.906250E-01  2.304688E+01  0.000000E+00
  3.906250E-01  2.343750E+01  0.000000E+00
  3.906250E-01  2.382812E+01  0.000000E+00
  3.906250E-01  2.421875E+01  0.000000E+00
  3.906250E-01  2.460938E+01  0.000000E+00
  7.812500E-01  0.000000E+00  0.000000E+00
  7.812500E-01  3.906250E-01  0.000000E+00
  7.812500E-01  7.812500E-01  0.000000E+00
  7.812500E-01  1.171875E+00  0.000000E+00
  7.812500E-01  1.562500E+00  0.000000E+00
  7.812500E-01  1.953125E+00  0.000000E+00
  7.812500E-01  2.343750E+00  0.000000E+00
  7.812500E-01  2.734375E+00  0.000000E+00
  7.812500E-01  3.125000E+00  0.000000E+00
  7.812500E-01  3.515625E+00  0.000000E+00
  7.812500E-01  3.906250E+00  0.000000E+00
  7.812500E-01  4.296875E+00  0.000000E+00
  7.812500E-01  4.687500E+00  0.000000E+00
  7.812500E-01  5.078125E+00  0.000000E+00
  7.812500E-01  5.468750E+00  0.000000E+00
  7.812500E-01  5.859375E+00  0.000000E+00
  7.812500E-01  6.250000E+00  0.000000E+00
  7.812500E-01  6.640625E+00  0.000000E+00
  7.812500E-01  7.031250E+00  0.000000E+00
  7.812500E-01  7.421875E+00  0.000000E+00
  7.812500E-01  7.812500E+00  0.000000E+00
  7.812500E-01  8.203125E+00  0.000000E+00
  7.812500E-01  8.593750E+00  0.000000E+00
  7.812500E-01  8.984375E+00  0.000000E+00
  7.812500E-01  9.375000E+00  0.000000E+00
  7.812500E-01  9.765625E+00  0.000000E+00
  7.812500E-01  1.015625E+01  0.000000E+00
  7.812500E-01  1.054688E+01  0.000000E+00
  7.812500E-01  1.093750E+01  0.000000E+00
  7.812500E-01  1.132812E+01  0.000000E+00
  7.812500E-01  1.171875E+01  0.000000E+00
  7.812500E-01  1.210938E+01  0.000000E+00
  7.812500E-01  1.250000E+01  0.000000E+00
  7.812500E-01  1.289062E+01  0.000000E+00
  7.812500E-01  1.328125E+01  0.000000E+00
  7.812500E-01  1.367188E+01  0.000000E+00
  7.812500E-01  1.406250E+01  0.000000E+00
  7.812500E-01  1.445312E+01  0.000000E+00
  7.812500E-01  1.484375E+01  0.000000E+00
  7.812500E-01  1.523438E+01  0.000000E+00
  7.812500E-01  1.562500E+01  0.000000E+00
  7.812500E-01  1.601562E+01  0.000000E+00
  7.812500E-01  1.640625E+01  0.000000E+00
  7.812500E-01  1.679688E+01  0.000000E+00
  7.812500E-01  1.718750E+01  0.000000E+00
  7.812500E-01  1.757812E+01  0.000000E+00
  7.812500E-01  1.796875E+01  0.000000E+00
  7.812500E-01  1.835938E+01  0.000000E+00
  7.812500E-01  1.875000E+01  0.000000E+00
  7.812500E-01  1.914062E+01  0.000000E+00
  7.812500E-01  1.953125E+01  0.000000E+00
  7.812500E-01  1.992188E+01  0.000000E+00
  7.812500E-01  2.031250E+01  0.000000E+00
  7.812500E-01  2.070312E+01  0.000000E+00
  7.812500E-01  2.109375E+01  0.000000E+00
  7.812500E-01  2.148438E+01  0.000000E+00
  7.812500E-01  2.187500E+01  0.000000E+00
  7.812500E-01  2.226562E+01  0.000000E+00
  7.812500E-01  2.265625E+01  0.000000E+00
  7.812500E-01  2.304688E+01  0.000000E+00
  7.812500E-01  2.343750E+01  0.000000E+00
  7.812500E-01  2.382812E+01  0.000000E+00
  7.812500E-01  2.421875E+01  0.000000E+00
  7.812500E-01  2.460938E+01  0.000000E+00
  1.171875E+00  0.000000E+00  0.000000E+00
  1.171875E+00  3.906250E-01  0.000000E+00
  1.171875E+00  7.812500E-01  0.000000E+00
  1.171875E+00  1.171875E+00  0.000000E+00
  1.171875E+00  1.562500E+00  0.000000E+00
  1.171875E+00  1.953125E+00  0.000000E+00
  1.171875E+00  2.343750E+00  0.000000E+00
  1.171875E+00  2.734375E+00  0.000000E+00
  1.171875E+00  3.125000E+00  0.000000E+00
  1.171875E+00  3.515625E+00  0.000000E+00
  1.171875E+00  3.906250E+00  0.000000E+00
  1.171875E+00  4.296875E+00  0.000000E+00
  1.171875E+00  4.687500E+00  0.000000E+00
  1.171875E+00  5.078125E+00  0.000000E+00
  1.171875E+00  5.468750E+00  0.000000E+00
  1.171875E+00  5.859375E+00  0.000000E+00
  1.171875E+00  6.250000E+00  0.000000E+00
  1.171875E+00  6.640625E+00  0.000000E+00
  1.171875E+00  7.031250E+00  0.000000E+00
  1.171875E+00  7.421875E+00  0.000000E+00
  1.171875E+00  7.812500E+00  0.000000E+00
  1.171875E+00  8.203125E+00  0.000000E+00
  1.171875E+00  8.593750E+00  0.000000E+00
  1.171875E+00  8.984375E+00  0.000000E+00
  1.171875E+00  9.375000E+00  0.000000E+00
  1.171875E+00  9.765625E+00  0.000000E+00
  1.171875E+00  1.015625E+01  0.000000E+00
  1.171875E+00  1.054688E+01  0.000000E+00
  1.171875E+00  1.093750E+01  0.000000E+00
  1.171875E+00  1.132812E+01  0.000000E+00
  1.171875E+00  1.171875E+01  0.000000E+00
  1.171875E+00  1.210938E+01  0.000000E+00
  1.171875E+00  1.250000E+01  0.000000E+00
  1.171875E+00  1.289062E+01  0.000000E+00
  1.171875E+00  1.328125E+01  0.000000E+00
  1.171875E+00  1.367188E+01  0.000000E+00
  1.171875E+00  1.406250E+01  0.000000E+00
  1.171875E+00  1.445312E+01  0.000000E+00
[...]
POINT_DATA   4096
SCALARS CON  float  1
LOOKUP_TABLE default
  4.695366E-01
  4.683879E-01
  4.706476E-01
  4.692216E-01
  4.709693E-01
  4.689957E-01
  4.703363E-01
  4.681866E-01
  4.695743E-01
  4.676221E-01
  4.692731E-01
  4.675945E-01
  4.695127E-01
  4.680961E-01
  4.702574E-01
  4.690169E-01
  4.712116E-01
  4.697910E-01
  4.715667E-01
  4.695352E-01
  4.706257E-01
  4.679904E-01
  4.687024E-01
  4.659975E-01
  4.669460E-01
  4.646995E-01
  4.661972E-01
  4.644621E-01
  4.663499E-01
  4.648656E-01
  4.669014E-01
  4.655189E-01
  4.676469E-01
  4.663389E-01
  4.684735E-01
  4.670402E-01
  4.688803E-01
  4.670050E-01
  4.683436E-01
  4.660402E-01
  4.671605E-01
  4.649413E-01
  4.664622E-01
  4.648829E-01
  4.671304E-01
  4.661760E-01
  4.687773E-01
  4.678108E-01
  4.700512E-01
  4.685065E-01
  4.701579E-01
  4.682213E-01
  4.698053E-01
  4.681163E-01
  4.701153E-01
  4.687825E-01
  4.708730E-01
  4.692776E-01
  4.708254E-01
  4.686181E-01
  4.697422E-01
  4.674884E-01
  4.689785E-01
  4.673690E-01
  4.712828E-01
  4.705090E-01
  4.716228E-01
  4.702712E-01
  4.707324E-01
  4.688794E-01
  4.691537E-01
  4.674706E-01
  4.681892E-01
  4.670676E-01
  4.683064E-01
  4.675658E-01
  4.690321E-01
  4.684119E-01
  4.699481E-01
  4.693675E-01
  4.708794E-01
  4.701439E-01
  4.713162E-01
  4.700603E-01
  4.706127E-01
  4.687782E-01
  4.689476E-01
  4.670369E-01
  4.674634E-01
  4.660741E-01
  4.671436E-01
  4.663488E-01
  4.678205E-01
  4.671589E-01
  4.685034E-01
  4.675371E-01
  4.685213E-01
  4.672551E-01
  4.680700E-01
  4.667708E-01
  4.676392E-01
  4.664069E-01
  4.672995E-01
  4.660402E-01
  4.669000E-01
  4.656778E-01
  4.667097E-01
  4.658088E-01
  4.672554E-01
  4.667510E-01
  4.684516E-01
  4.679778E-01
  4.694886E-01
  4.686971E-01
  4.699079E-01
  4.689685E-01
  4.702430E-01
  4.695312E-01
  4.710599E-01
  4.704638E-01
  4.718574E-01
  4.708746E-01
  4.717497E-01
  4.703100E-01
  4.709713E-01
  4.696468E-01
  4.706989E-01
  4.698653E-01
  4.681441E-01
  4.685588E-01
  4.694638E-01
  4.696133E-01
  4.699403E-01
  4.694397E-01
  4.692708E-01
  4.685580E-01
  4.684655E-01
  4.680286E-01
  4.682918E-01
  4.681984E-01
  4.687542E-01
  4.689034E-01
  4.696555E-01
  4.699283E-01
  4.706693E-01
  4.707239E-01
  4.710009E-01
  4.703787E-01
  4.698798E-01
  4.685516E-01
  4.675884E-01
  4.661537E-01
  4.654626E-01
  4.646001E-01
  4.646338E-01
  4.644850E-01
  4.650948E-01
  4.653253E-01
  4.661252E-01
  4.664034E-01
  4.671552E-01
  4.673085E-01
  4.678452E-01
  4.676682E-01
  4.677563E-01
  4.670579E-01
  4.666511E-01
  4.656149E-01
  4.651481E-01
  4.643950E-01
  4.645332E-01
  4.645928E-01
  4.655684E-01
  4.662872E-01
  4.675806E-01
  4.682073E-01
  4.690542E-01
  4.690484E-01
  4.693056E-01
  4.689603E-01
  4.692316E-01
  4.692056E-01
  4.699131E-01
  4.701861E-01
  4.708444E-01
  4.706512E-01
  4.705422E-01
  4.695436E-01
  4.688958E-01
  4.678434E-01
  4.676633E-01
  4.674367E-01
  4.695117E-01
  4.703104E-01
  4.700288E-01
  4.702683E-01
  4.693032E-01
  4.689842E-01
  4.677806E-01
  4.676122E-01
  4.668775E-01
  4.673295E-01
  4.671838E-01
  4.680688E-01
  4.681681E-01
  4.691554E-01
  4.692835E-01
  4.702629E-01
  4.703236E-01
  4.711085E-01
  4.707835E-01
  4.709844E-01
  4.699562E-01
  4.694874E-01
  4.680000E-01
  4.674198E-01
  4.662141E-01
  4.662436E-01
  4.658199E-01
  4.666071E-01
  4.667399E-01
  4.677746E-01
  4.678319E-01
  4.685415E-01
  4.681503E-01
  4.684207E-01
  4.676959E-01
  4.677742E-01
  4.669780E-01
  4.670546E-01
  4.662820E-01
  4.663971E-01
  4.657067E-01
  4.659952E-01
  4.656002E-01
  4.662888E-01
  4.663228E-01
  4.673564E-01
  4.675472E-01
  4.685029E-01
  4.684216E-01
  4.690313E-01
  4.686834E-01
  4.692259E-01
  4.690395E-01
  4.698896E-01
  4.699921E-01
  4.709357E-01
  4.708295E-01
  4.712806E-01
  4.705443E-01
  4.704482E-01
  4.694509E-01
  4.694784E-01
  4.689366E-01
  4.695625E-01
  4.662198E-01
  4.680040E-01
  4.676704E-01
  4.692414E-01
  4.683572E-01
  4.692791E-01
  4.678828E-01
  4.685740E-01
  4.672462E-01
  4.682203E-01
  4.672644E-01
  4.685969E-01
  4.679382E-01
  4.695050E-01
  4.690250E-01
  4.706942E-01
  4.701806E-01
  4.716036E-01
  4.705846E-01
  4.712705E-01
  4.693995E-01
  4.693006E-01
  4.669040E-01
  4.666748E-01
  4.645756E-01
  4.649918E-01
  4.637252E-01
  4.649766E-01
  4.643980E-01
  4.661118E-01
  4.657647E-01
  4.675201E-01
  4.670736E-01
  4.686163E-01
  4.678457E-01
  4.689481E-01
  4.676392E-01
  4.681694E-01
  4.663638E-01
  4.666012E-01
  4.648114E-01
  4.654113E-01
  4.642779E-01
  4.656885E-01
  4.653273E-01
  4.672794E-01
  4.670956E-01
  4.688313E-01
  4.681274E-01
  4.692251E-01
  4.679885E-01
  4.688418E-01
  4.677196E-01
  4.689700E-01
  4.683264E-01
  4.698858E-01
  4.691840E-01
  4.702637E-01
  4.687857E-01
  4.690576E-01
  4.670431E-01
  4.672677E-01
  4.657358E-01
  4.668160E-01
  4.676833E-01
  4.694752E-01
  4.682761E-01
  4.696180E-01
  4.678365E-01
  4.686841E-01
  4.666772E-01
  4.676414E-01
  4.660401E-01
  4.675545E-01
  4.664835E-01
  4.683937E-01
  4.675538E-01
  4.695713E-01
  4.687768E-01
  4.708058E-01
  4.699561E-01
  4.717860E-01
  4.705228E-01
  4.717187E-01
  4.696894E-01
  4.701561E-01
  4.676302E-01
  4.679830E-01
  4.657740E-01
  4.668012E-01
  4.654526E-01
  4.673126E-01
  4.665791E-01
  4.687219E-01
  4.679235E-01
  4.697285E-01
  4.684483E-01
  4.697635E-01
  4.680873E-01
  4.691460E-01
  4.673451E-01
  4.683732E-01
  4.665996E-01
  4.677002E-01
  4.660578E-01
  4.673709E-01
  4.660258E-01
  4.676841E-01
  4.666549E-01
  4.685064E-01
  4.674786E-01
  4.691325E-01
  4.677775E-01
  4.691017E-01
  4.675516E-01
  4.689043E-01
  4.676036E-01
  4.693252E-01
  4.683488E-01
  4.701892E-01
  4.690381E-01
  4.704378E-01
  4.687195E-01
  4.696263E-01
  4.676727E-01
  4.686922E-01
  4.671565E-01
  4.687366E-01
  4.646934E-01
  4.670057E-01
  4.661640E-01
  4.684393E-01
  4.672230E-01
  4.689709E-01
  4.672754E-01
  4.687321E-01
  4.669756E-01
  4.685584E-01
  4.670330E-01
  4.688803E-01
  4.676175E-01
  4.697181E-01
  4.686878E-01
  4.709557E-01
  4.699450E-01
  4.719928E-01
  4.704708E-01
  4.717500E-01
  4.693342E-01
  4.697960E-01
  4.668468E-01
  4.672008E-01
  4.645960E-01
  4.656513E-01
  4.639258E-01
  4.658406E-01
  4.648014E-01
  4.671563E-01
  4.663162E-01
  4.686796E-01
  4.677106E-01
  4.698348E-01
  4.685159E-01
  4.701751E-01
  4.682995E-01
  4.693821E-01
  4.670253E-01
  4.678482E-01
  4.655441E-01
  4.667482E-01
  4.650779E-01
  4.670154E-01
  4.659901E-01
  4.683161E-01
  4.673262E-01
  4.693412E-01
  4.678048E-01
  4.692210E-01
  4.672325E-01
  4.684908E-01
  4.666803E-01
  4.683669E-01
  4.670461E-01
  4.690586E-01
  4.677251E-01
  4.693375E-01
  4.673231E-01
  4.682044E-01
  4.656797E-01
  4.664773E-01
  4.643534E-01
  4.659212E-01
  4.665771E-01
  4.684480E-01
  4.671420E-01
  4.687950E-01
  4.671403E-01
  4.684616E-01
  4.666234E-01
  4.679724E-01
  4.663504E-01
  4.680179E-01
  4.667159E-01
  4.686383E-01
  4.675170E-01
  4.695794E-01
  4.685911E-01
  4.707708E-01
  4.698186E-01
  4.718560E-01
  4.705092E-01
  4.719043E-01
  4.697751E-01
  4.704366E-01
  4.678299E-01
  4.684195E-01
  4.661813E-01
  4.674859E-01
  4.661193E-01
  4.682300E-01
  4.674190E-01
  4.697361E-01
  4.687870E-01
  4.707116E-01
  4.692503E-01
  4.706755E-01
  4.688212E-01
  4.699985E-01
  4.680322E-01
  4.691995E-01
  4.672922E-01
  4.685719E-01
  4.668321E-01
  4.683379E-01
  4.668676E-01
  4.686413E-01
  4.673691E-01
  4.692046E-01
  4.678247E-01
  4.694065E-01
  4.677091E-01
  4.690256E-01
  4.672208E-01
  4.686397E-01
  4.671187E-01
  4.688992E-01
  4.676753E-01
  4.695613E-01
  4.681902E-01
  4.697079E-01
  4.678633E-01
  4.689618E-01
  4.668971E-01
  4.680506E-01
  4.662947E-01
  4.678996E-01
  4.640321E-01
  4.660804E-01
  4.654395E-01
  4.677061E-01
  4.669479E-01
  4.688656E-01
  4.676696E-01
  4.691873E-01
  4.677052E-01
  4.690746E-01
  4.675753E-01
  4.690454E-01
  4.677549E-01
  4.695249E-01
  4.685795E-01
  4.706510E-01
  4.698426E-01
  4.717732E-01
  4.704928E-01
  4.716672E-01
  4.694986E-01
  4.698721E-01
  4.672050E-01
  4.675178E-01
  4.652370E-01
  4.662671E-01
  4.648402E-01
  4.666601E-01
  4.658177E-01
  4.679663E-01
  4.672265E-01
  4.693198E-01
  4.684251E-01
  4.702850E-01
  4.690659E-01
  4.704948E-01
  4.687570E-01
  4.696519E-01
  4.674811E-01
  4.681667E-01
  4.660900E-01
  4.671721E-01
  4.657038E-01
  4.674500E-01
  4.665263E-01
  4.685581E-01
  4.675984E-01
  4.693049E-01
  4.678467E-01
  4.690453E-01
  4.672319E-01
  4.683369E-01
  4.667094E-01
  4.681967E-01
  4.669877E-01
  4.687445E-01
  4.675132E-01
  4.689137E-01
  4.670756E-01
  4.678066E-01
  4.654659E-01
  4.660503E-01
  4.639965E-01
  4.652383E-01
  4.663218E-01
  4.677371E-01
  4.667998E-01
  4.682285E-01
  4.671800E-01
  4.684423E-01
  4.672452E-01
  4.684244E-01
  4.672195E-01
  4.684463E-01
  4.673195E-01
  4.686475E-01
  4.676608E-01
  4.691898E-01
  4.684616E-01
  4.702521E-01
  4.696850E-01
  4.714196E-01
  4.705060E-01
  4.716219E-01
  4.699431E-01
  4.703495E-01
  4.682267E-01
  4.685948E-01
  4.668575E-01
  4.679248E-01
  4.670017E-01
  4.687797E-01
  4.682949E-01
  4.701640E-01
  4.694506E-01
  4.708755E-01
  4.696390E-01
  4.705859E-01
  4.689971E-01
  4.697454E-01
  4.680979E-01
  4.688934E-01
  4.673660E-01
  4.683337E-01
  4.670196E-01
  4.682291E-01
  4.671584E-01
  4.685687E-01
  4.676058E-01
  4.689952E-01
  4.678827E-01
  4.690390E-01
  4.676913E-01
  4.687001E-01
  4.673562E-01
  4.685301E-01
  4.674603E-01
  4.689190E-01
  4.680350E-01
  4.694989E-01
  4.684166E-01
  4.695235E-01
  4.680229E-01
  4.687686E-01
  4.670654E-01
  4.678205E-01
  4.663291E-01
  4.674316E-01
  4.641264E-01
  4.656661E-01
  4.654287E-01
  4.673441E-01
  4.671642E-01
  4.688575E-01
  4.682669E-01
  4.694702E-01
  4.684114E-01
  4.692482E-01
  4.679829E-01
  4.688101E-01
  4.677421E-01
  4.689436E-01
  4.683452E-01
  4.699814E-01
  4.696310E-01
  4.712014E-01
  4.704214E-01
  4.712585E-01
  4.696072E-01
  4.696611E-01
  4.675272E-01
  4.675249E-01
  4.657590E-01
  4.664250E-01
  4.654339E-01
  4.667912E-01
  4.662836E-01
  4.678851E-01
  4.674266E-01
  4.689550E-01
  4.683555E-01
  4.696856E-01
  4.688073E-01
  4.697569E-01
  4.684144E-01
  4.688911E-01
  4.671827E-01
  4.675145E-01
  4.659463E-01
  4.666849E-01
  4.656888E-01
  4.670134E-01
  4.664653E-01
  4.679953E-01
  4.673825E-01
  4.686301E-01
  4.676278E-01
  4.685113E-01
  4.672848E-01
  4.681461E-01
  4.670913E-01
  4.682408E-01
  4.674648E-01
  4.687495E-01
  4.678680E-01
  4.687858E-01
  4.673482E-01
  4.676702E-01
  4.657803E-01
  4.659496E-01
  4.642820E-01
  4.650164E-01
  4.667292E-01
  4.676608E-01
  4.670789E-01
  4.680692E-01
  4.674578E-01
  4.683546E-01
  4.676170E-01
  4.683836E-01
  4.675331E-01
  4.682215E-01
  4.673481E-01
  4.680956E-01
  4.673899E-01
  4.684214E-01
  4.680824E-01
  4.694780E-01
  4.693773E-01
  4.707647E-01
  4.703429E-01
  4.711255E-01
  4.699482E-01
  4.700254E-01
  4.683950E-01
  4.684033E-01
  4.671022E-01
  4.677318E-01
  4.671573E-01
  4.684169E-01
  4.682222E-01
  4.695461E-01
  4.691283E-01
  4.700377E-01
  4.691384E-01
  4.696118E-01
  4.683973E-01
  4.687071E-01
  4.674747E-01
  4.678853E-01
  4.668381E-01
  4.674850E-01
  4.666934E-01
  4.675808E-01
  4.669768E-01
  4.679632E-01
  4.673476E-01
  4.682174E-01
  4.674193E-01
  4.681070E-01
  4.672012E-01
  4.679092E-01
  4.671619E-01
  4.681249E-01
  4.676469E-01
  4.687984E-01
  4.683543E-01
  4.693594E-01
  4.686187E-01
  4.692518E-01
  4.681575E-01
  4.685379E-01
  4.673414E-01
  4.677781E-01
  4.667671E-01
  4.674650E-01
  4.648400E-01
  4.659201E-01
  4.659746E-01
  4.673493E-01
  4.674405E-01
  4.686102E-01
  4.683153E-01
  4.690056E-01
  4.682349E-01
  4.685464E-01
  4.675732E-01
  4.679100E-01
  4.672000E-01
  4.679935E-01
  4.678308E-01
  4.691157E-01
  4.692319E-01
  4.704629E-01
  4.701543E-01
  4.706579E-01
  4.694839E-01
  4.691996E-01
  4.675142E-01
  4.671136E-01
  4.657086E-01
  4.658778E-01
  4.651617E-01
  4.659703E-01
  4.657327E-01
  4.668254E-01
  4.667060E-01
  4.678020E-01
  4.676044E-01
  4.685398E-01
  4.680784E-01
  4.686392E-01
  4.677289E-01
  4.678541E-01
  4.666360E-01
  4.666781E-01
  4.656374E-01
  4.660716E-01
  4.655242E-01
  4.664122E-01
  4.661611E-01
  4.671317E-01
  4.667667E-01
  4.675031E-01
  4.668865E-01
  4.674469E-01
  4.667859E-01
  4.674391E-01
  4.669652E-01
  4.678227E-01
  4.674811E-01
  4.683229E-01
  4.677796E-01
  4.682508E-01
  4.672417E-01
  4.672674E-01
  4.659594E-01
  4.659306E-01
  4.648509E-01
  4.652975E-01
  4.677523E-01
  4.681857E-01
  4.678717E-01
  4.681717E-01
  4.677192E-01
  4.678987E-01
  4.673552E-01
  4.674769E-01
  4.669110E-01
  4.670531E-01
  4.665667E-01
  4.668700E-01
  4.666437E-01
  4.673005E-01
  4.674775E-01
  4.685017E-01
  4.688986E-01
  4.698928E-01
  4.699599E-01
  4.703588E-01
  4.696870E-01
  4.693835E-01
  4.682276E-01
  4.677814E-01
  4.668491E-01
  4.669134E-01
  4.666254E-01
  4.672932E-01
  4.674240E-01
  4.682487E-01
  4.682737E-01
  4.687914E-01
  4.684046E-01
  4.685081E-01
  4.677901E-01
  4.677009E-01
  4.669512E-01
  4.669824E-01
  4.664695E-01
  4.667983E-01
  4.665764E-01
  4.671221E-01
  4.669899E-01
  4.674745E-01
  4.671479E-01
  4.673642E-01
  4.667850E-01
  4.668582E-01
  4.663120E-01
  4.666074E-01
  4.664214E-01
  4.671130E-01
  4.672386E-01
  4.680597E-01
  4.680936E-01
  4.686344E-01
  4.682908E-01
  4.684732E-01
  4.678897E-01
  4.680008E-01
  4.675044E-01
  4.678025E-01
  4.675138E-01
  4.679708E-01
  4.661504E-01
  4.666147E-01
  4.669706E-01
  4.674686E-01
  4.676991E-01
  4.679428E-01
  4.678396E-01
  4.677304E-01
  4.673204E-01
  4.670156E-01
  4.665765E-01
  4.664411E-01
  4.663641E-01
  4.667295E-01
  4.671906E-01
  4.679995E-01
  4.686792E-01
  4.693912E-01
  4.696398E-01
  4.696555E-01
  4.690873E-01
  4.683489E-01
  4.672593E-01
  4.663387E-01
  4.654207E-01
  4.649522E-01
  4.646381E-01
  4.647891E-01
  4.650082E-01
  4.655559E-01
  4.660271E-01
  4.666906E-01
  4.671435E-01
  4.676451E-01
  4.677876E-01
  4.678562E-01
  4.675147E-01
  4.671572E-01
  4.665595E-01
  4.661854E-01
  4.658053E-01
  4.657991E-01
  4.658056E-01
  4.660770E-01
  4.661765E-01
  4.663575E-01
  4.662546E-01
  4.662276E-01
  4.660084E-01
  4.660104E-01
  4.659607E-01
  4.662176E-01
  4.664259E-01
  4.668616E-01
  4.671104E-01
  4.674263E-01
  4.674149E-01
  4.673875E-01
  4.670308E-01
  4.667424E-01
  4.662776E-01
  4.660653E-01
  4.658455E-01
  4.659887E-01
  4.692697E-01
  4.689295E-01
  4.689828E-01
  4.682375E-01
  4.679839E-01
  4.670731E-01
  4.668004E-01
  4.659931E-01
  4.659105E-01
  4.653483E-01
  4.655473E-01
  4.652979E-01
  4.658402E-01
  4.659542E-01
  4.668475E-01
  4.672416E-01
  4.682700E-01
  4.685882E-01
  4.693011E-01
  4.690949E-01
  4.691683E-01
  4.683448E-01
  4.679662E-01
  4.669615E-01
  4.667079E-01
  4.660912E-01
  4.663819E-01
  4.663284E-01
  4.670709E-01
  4.672652E-01
  4.680136E-01
  4.679907E-01
  4.683642E-01
  4.679038E-01
  4.678814E-01
  4.671583E-01
  4.670656E-01
  4.664768E-01
  4.666824E-01
  4.664698E-01
  4.670181E-01
  4.670066E-01
  4.675425E-01
  4.672945E-01
  4.674289E-01
  4.667321E-01
  4.665140E-01
  4.656854E-01
  4.656197E-01
  4.652052E-01
  4.657091E-01
  4.658616E-01
  4.667720E-01
  4.670660E-01
  4.678366E-01
  4.677857E-01
  4.681454E-01
  4.677674E-01
  4.679899E-01
  4.676911E-01
  4.681511E-01
  4.681326E-01
  4.687895E-01
  4.687931E-01
  4.677261E-01
  4.672972E-01
  4.680636E-01
  4.674464E-01
  4.679589E-01
  4.670705E-01
  4.673382E-01
  4.662661E-01
  4.664396E-01
  4.653877E-01
  4.657152E-01
  4.649560E-01
  4.656939E-01
  4.654087E-01
  4.666007E-01
  4.666520E-01
  4.679750E-01
  4.678998E-01
  4.688407E-01
  4.681897E-01
  4.684714E-01
  4.672112E-01
  4.670570E-01
  4.656150E-01
  4.655528E-01
  4.644363E-01
  4.648513E-01
  4.642693E-01
  4.651944E-01
  4.650403E-01
  4.662744E-01
  4.662827E-01
  4.675075E-01
  4.673193E-01
  4.681726E-01
  4.674954E-01
  4.678458E-01
  4.667770E-01
  4.669511E-01
  4.659603E-01
  4.664178E-01
  4.657937E-01
  4.665527E-01
  4.660488E-01
  4.667097E-01
  4.659442E-01
  4.663000E-01
  4.653207E-01
  4.656507E-01
  4.648586E-01
  4.655396E-01
  4.651626E-01
  4.662097E-01
  4.660592E-01
  4.671477E-01
  4.668595E-01
  4.676815E-01
  4.670763E-01
  4.676159E-01
  4.668333E-01
  4.673377E-01
  4.666562E-01
  4.673514E-01
  4.668784E-01
  4.707040E-01
  4.694758E-01
  4.699000E-01
  4.681428E-01
  4.682073E-01
  4.663116E-01
  4.664556E-01
  4.648120E-01
  4.653155E-01
  4.640760E-01
  4.649826E-01
  4.641211E-01
  4.653717E-01
  4.648150E-01
  4.663187E-01
  4.659386E-01
  4.675086E-01
  4.670536E-01
  4.683960E-01
  4.675820E-01
  4.684919E-01
  4.672573E-01
  4.678501E-01
  4.664747E-01
  4.671358E-01
  4.660202E-01
  4.670689E-01
  4.663743E-01
  4.677757E-01
  4.672789E-01
  4.686710E-01
  4.679528E-01
  4.689569E-01
  4.677734E-01
  4.683493E-01
  4.668874E-01
  4.674143E-01
  4.661530E-01
  4.670787E-01
  4.663001E-01
  4.676444E-01
  4.670812E-01
  4.683529E-01
  4.674292E-01
  4.681439E-01
  4.666266E-01
  4.668928E-01
  4.652193E-01
  4.656857E-01
  4.645279E-01
  4.656910E-01
  4.652250E-01
  4.668979E-01
  4.666482E-01
  4.682311E-01
  4.676695E-01
  4.688660E-01
  4.679972E-01
  4.690700E-01
  4.682804E-01
  4.695664E-01
  4.689974E-01
  4.703773E-01
  4.696840E-01
  4.688082E-01
  4.676776E-01
  4.686556E-01
  4.673373E-01
  4.681033E-01
  4.665906E-01
  4.672107E-01
  4.656184E-01
  4.662363E-01
  4.647298E-01
  4.655308E-01
  4.643052E-01
  4.654660E-01
  4.646343E-01
  4.661571E-01
  4.655839E-01
  4.672041E-01
  4.665410E-01
  4.678979E-01
  4.668502E-01
  4.677796E-01
  4.663468E-01
  4.670068E-01
  4.654650E-01
  4.661845E-01
  4.648450E-01
  4.658625E-01
  4.648640E-01
  4.662189E-01
  4.655172E-01
  4.670954E-01
  4.665084E-01
  4.680564E-01
  4.672717E-01
  4.684667E-01
  4.672361E-01
  4.680002E-01
  4.664768E-01
  4.671776E-01
  4.658376E-01
  4.668958E-01
  4.659465E-01
  4.672740E-01
  4.663664E-01
  4.674928E-01
  4.662219E-01
  4.669651E-01
  4.654382E-01
  4.661502E-01
  4.648355E-01
  4.659455E-01
  4.651085E-01
  4.666603E-01
  4.661363E-01
  4.678209E-01
  4.672437E-01
  4.687229E-01
  4.678505E-01
  4.690195E-01
  4.678919E-01
  4.689082E-01
  4.677409E-01
  4.688018E-01
  4.677074E-01
  4.712619E-01
  4.696948E-01
  4.700579E-01
  4.680890E-01
  4.682303E-01
  4.662472E-01
  4.665589E-01
  4.648734E-01
  4.655413E-01
  4.642134E-01
  4.652067E-01
  4.641622E-01
  4.654017E-01
  4.645728E-01
  4.659960E-01
  4.653065E-01
  4.668046E-01
  4.661073E-01
  4.675092E-01
  4.666410E-01
  4.678320E-01
  4.667614E-01
  4.678082E-01
  4.666891E-01
  4.677963E-01
  4.668308E-01
  4.681433E-01
  4.673763E-01
  4.688177E-01
  4.680569E-01
  4.693519E-01
  4.682963E-01
  4.691919E-01
  4.677119E-01
  4.682601E-01
  4.666088E-01
  4.672275E-01
  4.658961E-01
  4.670207E-01
  4.662561E-01
  4.678534E-01
  4.673269E-01
  4.688464E-01
  4.679340E-01
  4.688594E-01
  4.673102E-01
  4.677394E-01
  4.659797E-01
  4.665478E-01
  4.652406E-01
  4.664532E-01
  4.658158E-01
  4.675632E-01
  4.672200E-01
  4.689964E-01
  4.684724E-01
  4.699659E-01
  4.691739E-01
  4.704978E-01
  4.696566E-01
  4.710087E-01
  4.701868E-01
  4.714574E-01
  4.703938E-01
  4.687503E-01
  4.677474E-01
  4.683314E-01
  4.673757E-01
  4.679685E-01
  4.669830E-01
  4.675102E-01
  4.664314E-01
  4.668586E-01
  4.657094E-01
  4.661394E-01
  4.651006E-01
  4.657549E-01
  4.650226E-01
  4.660017E-01
  4.655358E-01
  4.666596E-01
  4.661878E-01
  4.671686E-01
  4.664660E-01
  4.671962E-01
  4.662888E-01
  4.669048E-01
  4.659874E-01
  4.666808E-01
  4.658915E-01
  4.667236E-01
  4.660563E-01
  4.669855E-01
  4.663958E-01
  4.673879E-01
  4.668353E-01
  4.678088E-01
  4.671478E-01
  4.679095E-01
  4.669636E-01
  4.674450E-01
  4.663246E-01
  4.668198E-01
  4.659224E-01
  4.667906E-01
  4.662929E-01
  4.674472E-01
  4.670213E-01
  4.680117E-01
  4.672497E-01
  4.678520E-01
  4.667788E-01
  4.672398E-01