# vtk DataFile Version 2.0
title
ASCII
DATASET STRUCTURED_GRID
DIMENSIONS   64   64    1
POINTS   4096  float
  0.000000E+00  0.000000E+00  0.000000E+00
  0.000000E+00  3.906250E-01  0.000000E+00
  0.000000E+00  7.812500E-01  0.000000E+00
  0.000000E+00  1.171875E+00  0.000000E+00
  0.000000E+00  1.562500E+00  0.000000E+00
  0.000000E+00  1.953125E+00  0.000000E+00
  0.000000E+00  2.343750E+00  0.000000E+00
  0.000000E+00  2.734375E+00  0.000000E+00
  0.000000E+00  3.125000E+00  0.000000E+00
  0.000000E+00  3.515625E+00  0.000000E+00
  0.000000E+00  3.906250E+00  0.000000E+00
  0.000000E+00  4.296875E+00  0.000000E+00
  0.000000E+00  4.687500E+00  0.000000E+00
  0.000000E+00  5.078125E+00  0.000000E+00
  0.000000E+00  5.468750E+00  0.000000E+00
  0.000000E+00  5.859375E+00  0.000000E+00
  0.000000E+00  6.250000E+00  0.000000E+00
  0.000000E+00  6.640625E+00  0.000000E+00
  0.000000E+00  7.031250E+00  0.000000E+00
  0.000000E+00  7.421875E+00  0.000000E+00
  0.000000E+00  7.812500E+00  0.000000E+00
  0.000000E+00  8.203125E+00  0.000000E+00
  0.000000E+00  8.593750E+00  0.000000E+00
  0.000000E+00  8.984375E+00  0.000000E+00
  0.000000E+00  9.375000E+00  0.000000E+00
  0.000000E+00  9.765625E+00  0.000000E+00
  0.000000E+00  1.015625E+01  0.000000E+00
  0.000000E+00  1.054688E+01  0.000000E+00
  0.000000E+00  1.093750E+01  0.000000E+00
  0.000000E+00  1.132812E+01  0.000000E+00
  0.000000E+00  1.171875E+01  0.000000E+00
  0.000000E+00  1.210938E+01  0.000000E+00
  0.000000E+00  1.250000E+01  0.000000E+00
  0.000000E+00  1.289062E+01  0.000000E+00
  0.000000E+00  1.328125E+01  0.000000E+00
  0.000000E+00  1.367188E+01  0.000000E+00
  0.000000E+00  1.406250E+01  0.000000E+00
  0.000000E+00  1.445312E+01  0.000000E+00
  0.000000E+00  1.484375E+01  0.000000E+00
  0.000000E+00  1.523438E+01  0.000000E+00
  0.000000E+00  1.562500E+01  0.000000E+00
  0.000000E+00  1.601562E+01  0.000000E+00
  0.000000E+00  1.640625E+01  0.000000E+00
  0.000000E+00  1.679688E+01  0.000000E+00
  0.000000E+00  1.718750E+01  0.000000E+00
  0.000000E+00  1.757812E+01  0.000000E+00
  0.000000E+00  1.796875E+01  0.000000E+00
  0.000000E+00  1.835938E+01  0.000000E+00
  0.000000E+00  1.875000E+01  0.000000E+00
  0.000000E+00  1.914062E+01  0.000000E+00
  0.000000E+00  1.953125E+01  0.000000E+00
  0.000000E+00  1.992188E+01  0.000000E+00
  0.000000E+00  2.031250E+01  0.000000E+00
  0.000000E+00  2.070312E+01  0.000000E+00
  0.000000E+00  2.109375E+01  0.000000E+00
  0.000000E+00  2.148438E+01  0.000000E+00
  0.000000E+00  2.187500E+01  0.000000E+00
  0.000000E+00  2.226562E+01  0.000000E+00
  0.000000E+00  2.265625E+01  0.000000E+00
  0.000000E+00  2.304688E+01  0.000000E+00
  0.000000E+00  2.343750E+01  0.000000E+00
  0.000000E+00  2.382812E+01  0.000000E+00
  0.000000E+00  2.421875E+01  0.000000E+00
  0.000000E+00  2.460938E+01  0.000000E+00
  3.906250E-01  0.000000E+00  0.000000E+00
  3.906250E-01  3.906250E-01  0.000000E+00
  3.906250E-01  7.812500E-01  0.000000E+00
  3.906250E-01  1.171875E+00  0.000000E+00
  3.906250E-01  1.562500E+00  0.000000E+00
  3.906250E-01  1.953125E+00  0.000000E+00
  3.906250E-01  2.343750E+00  0.000000E+00
  3.906250E-01  2.734375E+00  0.000000E+00
  3.906250E-01  3.125000E+00  0.000000E+00
  3.906250E-01  3.515625E+00  0.000000E+00
  3.906250E-01  3.906250E+00  0.000000E+00
  3.906250E-01  4.296875E+00  0.000000E+00
  3.906250E-01  4.687500E+00  0.000000E+00
  3.906250E-01  5.078125E+00  0.000000E+00
  3.906250E-01  5.468750E+00  0.000000E+00
  3.906250E-01  5.859375E+00  0.000000E+00
  3.906250E-01  6.250000E+00  0.000000E+00
  3.906250E-01  6.640625E+00  0.000000E+00
  3.906250E-01  7.031250E+00  0.000000E+00
  3.906250E-01  7.421875E+00  0.000000E+00
  3.906250E-01  7.812500E+00  0.000000E+00
  3.906250E-01  8.203125E+00  0.000000E+00
  3.906250E-01  8.593750E+00  0.000000E+00
  3.906250E-01  8.984375E+00  0.000000E+00
  3.906250E-01  9.375000E+00  0.000000E+00
  3.906250E-01  9.765625E+00  0.000000E+00
  3.906250E-01  1.015625E+01  0.000000E+00
  3.906250E-01  1.054688E+01  0.000000E+00
  3.906250E-01  1.093750E+01  0.000000E+00
  3.906250E-01  1.132812E+01  0.000000E+00
  3.906250E-01  1.171875E+01  0.000000E+00
  3.906250E-01  1.210938E+01  0.000000E+00
  3.906250E-01  1.250000E+01  0.000000E+00
  3.906250E-01  1.289062E+01  0.000000E+00
  3.906250E-01  1.328125E+01  0.000000E+00
  3.906250E-01  1.367188E+01  0.000000E+00
  3.906250E-01  1.406250E+01  0.000000E+00
  3.906250E-01  1.445312E+01  0.000000E+00
  3.906250E-01  1.484375E+01  0.000000E+00
  3.906250E-01  1.523438E+01  0.000000E+00
  3.906250E-01  1.562500E+01  0.000000E+00
  3.906250E-01  1.601562E+01  0.000000E+00
  3.906250E-01  1.640625E+01  0.000000E+00
  3.906250E-01  1.679688E+01  0.000000E+00
  3.906250E-01  1.718750E+01  0.000000E+00
  3.906250E-01  1.757812E+01  0.000000E+00
  3.906250E-01  1.796875E+01  0.000000E+00
  3.906250E-01  1.835938E+01  0.000000E+00
  3.906250E-01  1.875000E+01  0.000000E+00
  3.906250E-01  1.914062E+01  0.000000E+00
  3.906250E-01  1.953125E+01  0.000000E+00
  3.906250E-01  1.992188E+01  0.000000E+00
  3.906250E-01  2.031250E+01  0.000000E+00
  3.906250E-01  2.070312E+01  0.000000E+00
  3.906250E-01  2.109375E+01  0.000000E+00
  3.906250E-01  2.148438E+01  0.000000E+00
  3.906250E-01  2.187500E+01  0.000000E+00
  3.906250E-01  2.226562E+01  0.000000E+00
  3.906250E-01  2.265625E+01  0.000000E+00
  3.906250E-01  2.304688E+01  0.000000E+00
  3.906250E-01  2.343750E+01  0.000000E+00
  3.906250E-01  2.382812E+01  0.000000E+00
  3.906250E-01  2.421875E+01  0.000000E+00
  3.906250E-01  2.460938E+01  0.000000E+00
  7.812500E-01  0.000000E+00  0.000000E+00
  7.812500E-01  3.906250E-01  0.000000E+00
  7.812500E-01  7.812500E-01  0.000000E+00
  7.812500E-01  1.171875E+00  0.000000E+00
  7.812500E-01  1.562500E+00  0.000000E+00
  7.812500E-01  1.953125E+00  0.000000E+00
  7.812500E-01  2.343750E+00  0.000000E+00
  7.812500E-01  2.734375E+00  0.000000E+00
  7.812500E-01  3.125000E+00  0.000000E+00
  7.812500E-01  3.515625E+00  0.000000E+00
  7.812500E-01  3.906250E+00  0.000000E+00
  7.812500E-01  4.296875E+00  0.000000E+00
  7.812500E-01  4.687500E+00  0.000000E+00
  7.812500E-01  5.078125E+00  0.000000E+00
  7.812500E-01  5.468750E+00  0.000000E+00
  7.812500E-01  5.859375E+00  0.000000E+00
  7.812500E-01  6.250000E+00  0.000000E+00
  7.812500E-01  6.640625E+00  0.000000E+00
  7.812500E-01  7.031250E+00  0.000000E+00
  7.812500E-01  7.421875E+00  0.000000E+00
  7.812500E-01  7.812500E+00  0.000000E+00
  7.812500E-01  8.203125E+00  0.000000E+00
  7.812500E-01  8.593750E+00  0.000000E+00
  7.812500E-01  8.984375E+00  0.000000E+00
  7.812500E-01  9.375000E+00  0.000000E+00
  7.812500E-01  9.765625E+00  0.000000E+00
  7.812500E-01  1.015625E+01  0.000000E+00
  7.812500E-01  1.054688E+01  0.000000E+00
  7.812500E-01  1.093750E+01  0.000000E+00
  7.812500E-01  1.132812E+01  0.000000E+00
  7.812500E-01  1.171875E+01  0.000000E+00
  7.812500E-01  1.210938E+01  0.000000E+00
  7.812500E-01  1.250000E+01  0.000000E+00
  7.812500E-01  1.289062E+01  0.000000E+00
  7.812500E-01  1.328125E+01  0.000000E+00
  7.812500E-01  1.367188E+01  0.000000E+00
  7.812500E-01  1.406250E+01  0.000000E+00
  7.812500E-01  1.445312E+01  0.000000E+00
  7.812500E-01  1.484375E+01  0.000000E+00
  7.812500E-01  1.523438E+01  0.000000E+00
  7.812500E-01  1.562500E+01  0.000000E+00
  7.812500E-01  1.601562E+01  0.000000E+00
  7.812500E-01  1.640625E+01  0.000000E+00
  7.812500E-01  1.679688E+01  0.000000E+00
  7.812500E-01  1.718750E+01  0.000000E+00
  7.812500E-01  1.757812E+01  0.000000E+00
  7.812500E-01  1.796875E+01  0.000000E+00
  7.812500E-01  1.835938E+01  0.000000E+00
  7.812500E-01  1.875000E+01  0.000000E+00
  7.812500E-01  1.914062E+01  0.000000E+00
  7.812500E-01  1.953125E+01  0.000000E+00
  7.812500E-01  1.992188E+01  0.000000E+00
  7.812500E-01  2.031250E+01  0.000000E+00
  7.812500E-01  2.070312E+01  0.000000E+00
  7.812500E-01  2.109375E+01  0.000000E+00
  7.812500E-01  2.148438E+01  0.000000E+00
  7.812500E-01  2.187500E+01  0.000000E+00
  7.812500E-01  2.226562E+01  0.000000E+00
  7.812500E-01  2.265625E+01  0.000000E+00
  7.812500E-01  2.304688E+01  0.000000E+00
  7.812500E-01  2.343750E+01  0.000000E+00
  7.812500E-01  2.382812E+01  0.000000E+00
  7.812500E-01  2.421875E+01  0.000000E+00
  7.812500E-01  2.460938E+01  0.000000E+00
  1.171875E+00  0.000000E+00  0.000000E+00
  1.171875E+00  3.906250E-01  0.000000E+00
  1.171875E+00  7.812500E-01  0.000000E+00
  1.171875E+00  1.171875E+00  0.000000E+00
  1.171875E+00  1.562500E+00  0.000000E+00
  1.171875E+00  1.953125E+00  0.000000E+00
  1.171875E+00  2.343750E+00  0.000000E+00
  1.171875E+00  2.734375E+00  0.000000E+00
  1.171875E+00  3.125000E+00  0.000000E+00
  1.171875E+00  3.515625E+00  0.000000E+00
  1.171875E+00  3.906250E+00  0.000000E+00
  1.171875E+00  4.296875E+00  0.000000E+00
  1.171875E+00  4.687500E+00  0.000000E+00
  1.171875E+00  5.078125E+00  0.000000E+00
  1.171875E+00  5.468750E+00  0.000000E+00
  1.171875E+00  5.859375E+00  0.000000E+00
  1.171875E+00  6.250000E+00  0.000000E+00
  1.171875E+00  6.640625E+00  0.000000E+00
  1.171875E+00  7.031250E+00  0.000000E+00
  1.171875E+00  7.421875E+00  0.000000E+00
  1.171875E+00  7.812500E+00  0.000000E+00
  1.171875E+00  8.203125E+00  0.000000E+00
  1.171875E+00  8.593750E+00  0.000000E+00
  1.171875E+00  8.984375E+00  0.000000E+00
  1.171875E+00  9.375000E+00  0.000000E+00
  1.171875E+00  9.765625E+00  0.000000E+00
  1.171875E+00  1.015625E+01  0.000000E+00
  1.171875E+00  1.054688E+01  0.000000E+00
  1.171875E+00  1.093750E+01  0.000000E+00
  1.171875E+00  1.132812E+01  0.000000E+00
  1.171875E+00  1.171875E+01  0.000000E+00
  1.171875E+00  1.210938E+01  0.000000E+00
  1.171875E+00  1.250000E+01  0.000000E+00
  1.171875E+00  1.289062E+01  0.000000E+00
  1.171875E+00  1.328125E+01  0.000000E+00
  1.171875E+00  1.367188E+01  0.000000E+00
  1.171875E+00  1.406250E+01  0.000000E+00
  1.171875E+00  1.445312E+01  0.000000E+00
[...]
POINT_DATA   4096
SCALARS CON  float  1
LOOKUP_TABLE default
  4.694981E-01
  4.687166E-01
  4.714989E-01
  4.699577E-01
  4.716549E-01
  4.692141E-01
  4.705218E-01
  4.682111E-01
  4.699205E-01
  4.679694E-01
  4.698166E-01
  4.678226E-01
  4.696406E-01
  4.678185E-01
  4.700478E-01
  4.687277E-01
  4.712961E-01
  4.699338E-01
  4.720060E-01
  4.697954E-01
  4.708930E-01
  4.678431E-01
  4.684530E-01
  4.653854E-01
  4.664426E-01
  4.641561E-01
  4.661003E-01
  4.645510E-01
  4.668976E-01
  4.653839E-01
  4.675330E-01
  4.658115E-01
  4.679211E-01
  4.663542E-01
  4.686721E-01
  4.671511E-01
  4.691990E-01
  4.670983E-01
  4.684233E-01
  4.656976E-01
  4.667034E-01
  4.640710E-01
  4.655804E-01
  4.637792E-01
  4.663051E-01
  4.655049E-01
  4.687641E-01
  4.681792E-01
  4.709953E-01
  4.693924E-01
  4.709608E-01
  4.683845E-01
  4.696928E-01
  4.677062E-01
  4.701763E-01
  4.693336E-01
  4.723077E-01
  4.709943E-01
  4.726590E-01
  4.697509E-01
  4.702425E-01
  4.671035E-01
  4.683970E-01
  4.667219E-01
  4.714020E-01
  4.710404E-01
  4.726405E-01
  4.711906E-01
  4.715014E-01
  4.690911E-01
  4.691411E-01
  4.672181E-01
  4.682252E-01
  4.672832E-01
  4.689157E-01
  4.681111E-01
  4.695387E-01
  4.684846E-01
  4.698707E-01
  4.690394E-01
  4.707504E-01
  4.700754E-01
  4.715605E-01
  4.702456E-01
  4.708468E-01
  4.686908E-01
  4.687669E-01
  4.665562E-01
  4.670460E-01
  4.655855E-01
  4.669571E-01
  4.662897E-01
  4.681765E-01
  4.676276E-01
  4.692233E-01
  4.680840E-01
  4.689980E-01
  4.673196E-01
  4.680009E-01
  4.664168E-01
  4.673907E-01
  4.660879E-01
  4.671538E-01
  4.657033E-01
  4.664875E-01
  4.648318E-01
  4.656982E-01
  4.645167E-01
  4.661846E-01
  4.659054E-01
  4.682656E-01
  4.681975E-01
  4.701859E-01
  4.693068E-01
  4.704046E-01
  4.689830E-01
  4.701695E-01
  4.694387E-01
  4.715581E-01
  4.714768E-01
  4.735422E-01
  4.726155E-01
  4.733462E-01
  4.711433E-01
  4.711867E-01
  4.691559E-01
  4.701290E-01
  4.693680E-01
  4.678791E-01
  4.690582E-01
  4.705327E-01
  4.707720E-01
  4.707914E-01
  4.697259E-01
  4.690940E-01
  4.681620E-01
  4.682054E-01
  4.680592E-01
  4.686333E-01
  4.686379E-01
  4.691102E-01
  4.690065E-01
  4.695480E-01
  4.696959E-01
  4.705024E-01
  4.706937E-01
  4.711564E-01
  4.706110E-01
  4.701057E-01
  4.686241E-01
  4.674824E-01
  4.658473E-01
  4.650763E-01
  4.642250E-01
  4.644242E-01
  4.644648E-01
  4.652706E-01
  4.655579E-01
  4.663240E-01
  4.664486E-01
  4.670800E-01
  4.671478E-01
  4.677266E-01
  4.676082E-01
  4.677662E-01
  4.670089E-01
  4.664572E-01
  4.651408E-01
  4.643868E-01
  4.633406E-01
  4.633219E-01
  4.633515E-01
  4.645335E-01
  4.656180E-01
  4.674343E-01
  4.685301E-01
  4.696971E-01
  4.696743E-01
  4.696557E-01
  4.688616E-01
  4.688342E-01
  4.688158E-01
  4.699841E-01
  4.709634E-01
  4.723419E-01
  4.724814E-01
  4.721918E-01
  4.704687E-01
  4.688925E-01
  4.670161E-01
  4.665067E-01
  4.664894E-01
  4.693505E-01
  4.709541E-01
  4.709831E-01
  4.713657E-01
  4.698603E-01
  4.690141E-01
  4.670783E-01
  4.667451E-01
  4.660036E-01
  4.670168E-01
  4.672468E-01
  4.685834E-01
  4.685705E-01
  4.694386E-01
  4.691061E-01
  4.699922E-01
  4.699263E-01
  4.710393E-01
  4.708608E-01
  4.713922E-01
  4.702786E-01
  4.698193E-01
  4.679911E-01
  4.673153E-01
  4.658116E-01
  4.658828E-01
  4.653376E-01
  4.663451E-01
  4.665058E-01
  4.678394E-01
  4.678872E-01
  4.687282E-01
  4.680815E-01
  4.682692E-01
  4.672205E-01
  4.673386E-01
  4.664686E-01
  4.668191E-01
  4.660492E-01
  4.663048E-01
  4.653454E-01
  4.655208E-01
  4.647758E-01
  4.655117E-01
  4.655467E-01
  4.670220E-01
  4.674740E-01
  4.688672E-01
  4.687568E-01
  4.693366E-01
  4.685234E-01
  4.688532E-01
  4.683955E-01
  4.695484E-01
  4.699860E-01
  4.716262E-01
  4.718143E-01
  4.724646E-01
  4.712641E-01
  4.706669E-01
  4.688596E-01
  4.685417E-01
  4.677916E-01
  4.688908E-01
  4.657573E-01
  4.685406E-01
  4.684764E-01
  4.703242E-01
  4.687720E-01
  4.692431E-01
  4.669740E-01
  4.675833E-01
  4.661019E-01
  4.676957E-01
  4.669540E-01
  4.688281E-01
  4.679842E-01
  4.696378E-01
  4.687136E-01
  4.705161E-01
  4.698427E-01
  4.717388E-01
  4.707658E-01
  4.718934E-01
  4.698192E-01
  4.698097E-01
  4.669005E-01
  4.666070E-01
  4.640372E-01
  4.645872E-01
  4.631084E-01
  4.647030E-01
  4.639964E-01
  4.660008E-01
  4.653930E-01
  4.673210E-01
  4.665913E-01
  4.684012E-01
  4.675094E-01
  4.690147E-01
  4.676099E-01
  4.684298E-01
  4.663191E-01
  4.666307E-01
  4.644055E-01
  4.650874E-01
  4.636627E-01
  4.653887E-01
  4.649870E-01
  4.674462E-01
  4.672864E-01
  4.694201E-01
  4.684533E-01
  4.695466E-01
  4.676628E-01
  4.683137E-01
  4.666622E-01
  4.681541E-01
  4.676038E-01
  4.699440E-01
  4.695293E-01
  4.711091E-01
  4.692469E-01
  4.692347E-01
  4.662931E-01
  4.661997E-01
  4.642654E-01
  4.659051E-01
  4.674971E-01
  4.700517E-01
  4.688990E-01
  4.704404E-01
  4.679760E-01
  4.684273E-01
  4.655524E-01
  4.664517E-01
  4.646889E-01
  4.668899E-01
  4.661042E-01
  4.686602E-01
  4.676566E-01
  4.697513E-01
  4.684329E-01
  4.705697E-01
  4.695629E-01
  4.719616E-01
  4.708185E-01
  4.725212E-01
  4.702502E-01
  4.707494E-01
  4.676080E-01
  4.678468E-01
  4.651040E-01
  4.662417E-01
  4.646276E-01
  4.668444E-01
  4.660361E-01
  4.686443E-01
  4.677674E-01
  4.699098E-01
  4.683396E-01
  4.697949E-01
  4.677545E-01
  4.690519E-01
  4.671056E-01
  4.685796E-01
  4.667264E-01
  4.681552E-01
  4.662066E-01
  4.676543E-01
  4.659601E-01
  4.678821E-01
  4.667205E-01
  4.690028E-01
  4.678464E-01
  4.697373E-01
  4.679213E-01
  4.691381E-01
  4.669154E-01
  4.681865E-01
  4.664911E-01
  4.685682E-01
  4.676215E-01
  4.700521E-01
  4.688785E-01
  4.705603E-01
  4.683986E-01
  4.692401E-01
  4.667184E-01
  4.678296E-01
  4.661209E-01
  4.682956E-01
  4.643507E-01
  4.673256E-01
  4.666578E-01
  4.691260E-01
  4.674313E-01
  4.688362E-01
  4.664904E-01
  4.678640E-01
  4.660021E-01
  4.680511E-01
  4.667128E-01
  4.689576E-01
  4.675499E-01
  4.696841E-01
  4.683406E-01
  4.707657E-01
  4.697776E-01
  4.723291E-01
  4.709788E-01
  4.726090E-01
  4.699592E-01
  4.702834E-01
  4.667319E-01
  4.668419E-01
  4.638121E-01
  4.649880E-01
  4.632283E-01
  4.655308E-01
  4.645257E-01
  4.671618E-01
  4.661751E-01
  4.686864E-01
  4.675637E-01
  4.699538E-01
  4.686474E-01
  4.706782E-01
  4.687816E-01
  4.700581E-01
  4.674317E-01
  4.682427E-01
  4.656009E-01
  4.668905E-01
  4.650950E-01
  4.673470E-01
  4.663443E-01
  4.689956E-01
  4.679008E-01
  4.700128E-01
  4.680967E-01
  4.693470E-01
  4.667890E-01
  4.678273E-01
  4.655745E-01
  4.673488E-01
  4.660021E-01
  4.684926E-01
  4.673482E-01
  4.693820E-01
  4.672425E-01
  4.681059E-01
  4.650929E-01
  4.657689E-01
  4.633872E-01
  4.653162E-01
  4.665245E-01
  4.686270E-01
  4.674723E-01
  4.691667E-01
  4.673255E-01
  4.683462E-01
  4.661633E-01
  4.673553E-01
  4.657894E-01
  4.677547E-01
  4.667670E-01
  4.689032E-01
  4.677268E-01
  4.695806E-01
  4.683309E-01
  4.704514E-01
  4.696631E-01
  4.720894E-01
  4.711025E-01
  4.726974E-01
  4.704367E-01
  4.707463E-01
  4.676544E-01
  4.678730E-01
  4.654281E-01
  4.667796E-01
  4.655897E-01
  4.679902E-01
  4.674389E-01
  4.700020E-01
  4.691833E-01
  4.711737E-01
  4.696538E-01
  4.710057E-01
  4.690595E-01
  4.702493E-01
  4.683416E-01
  4.696363E-01
  4.677845E-01
  4.690662E-01
  4.672153E-01
  4.686287E-01
  4.670931E-01
  4.689352E-01
  4.677719E-01
  4.697495E-01
  4.683924E-01
  4.698942E-01
  4.679490E-01
  4.689719E-01
  4.668430E-01
  4.680560E-01
  4.664291E-01
  4.682719E-01
  4.671640E-01
  4.692170E-01
  4.679353E-01
  4.695067E-01
  4.676227E-01
  4.686871E-01
  4.665567E-01
  4.677061E-01
  4.659630E-01
  4.676867E-01
  4.636898E-01
  4.658464E-01
  4.656018E-01
  4.679330E-01
  4.673401E-01
  4.690443E-01
  4.678447E-01
  4.691691E-01
  4.678504E-01
  4.692039E-01
  4.679135E-01
  4.692280E-01
  4.678967E-01
  4.693141E-01
  4.683335E-01
  4.703008E-01
  4.698441E-01
  4.719961E-01
  4.711438E-01
  4.722960E-01
  4.700829E-01
  4.699437E-01
  4.669516E-01
  4.668151E-01
  4.645907E-01
  4.656994E-01
  4.647721E-01
  4.668493E-01
  4.663746E-01
  4.684405E-01
  4.677110E-01
  4.695252E-01
  4.686840E-01
  4.704926E-01
  4.695878E-01
  4.710962E-01
  4.695853E-01
  4.702853E-01
  4.680102E-01
  4.682714E-01
  4.660676E-01
  4.669114E-01
  4.656176E-01
  4.674088E-01
  4.668195E-01
  4.688983E-01
  4.681507E-01
  4.697219E-01
  4.682891E-01
  4.691913E-01
  4.672820E-01
  4.680292E-01
  4.663361E-01
  4.676122E-01
  4.665880E-01
  4.684229E-01
  4.676020E-01
  4.691445E-01
  4.675750E-01
  4.681406E-01
  4.657117E-01
  4.658714E-01
  4.636816E-01
  4.646877E-01
  4.660735E-01
  4.673074E-01
  4.667177E-01
  4.681699E-01
  4.675066E-01
  4.686703E-01
  4.676833E-01
  4.686639E-01
  4.676963E-01
  4.688138E-01
  4.679414E-01
  4.690101E-01
  4.679937E-01
  4.690045E-01
  4.682010E-01
  4.697256E-01
  4.695386E-01
  4.714297E-01
  4.710430E-01
  4.720876E-01
  4.704444E-01
  4.702849E-01
  4.679617E-01
  4.679047E-01
  4.664036E-01
  4.675594E-01
  4.672356E-01
  4.691918E-01
  4.691408E-01
  4.708817E-01
  4.702873E-01
  4.713534E-01
  4.701274E-01
  4.707272E-01
  4.692540E-01
  4.698052E-01
  4.684005E-01
  4.690386E-01
  4.676797E-01
  4.683398E-01
  4.670588E-01
  4.679317E-01
  4.670071E-01
  4.682905E-01
  4.676808E-01
  4.690520E-01
  4.682615E-01
  4.692553E-01
  4.680432E-01
  4.687397E-01
  4.674732E-01
  4.683835E-01
  4.675209E-01
  4.688710E-01
  4.683112E-01
  4.697050E-01
  4.689080E-01
  4.698637E-01
  4.685642E-01
  4.690826E-01
  4.674932E-01
  4.679057E-01
  4.664085E-01
  4.671124E-01
  4.634614E-01
  4.649292E-01
  4.651352E-01
  4.672203E-01
  4.675274E-01
  4.692759E-01
  4.689877E-01
  4.700725E-01
  4.691840E-01
  4.697880E-01
  4.685542E-01
  4.689759E-01
  4.677838E-01
  4.685331E-01
  4.679474E-01
  4.694467E-01
  4.694959E-01
  4.712193E-01
  4.708839E-01
  4.716316E-01
  4.699947E-01
  4.695459E-01
  4.672444E-01
  4.669036E-01
  4.654280E-01
  4.663031E-01
  4.659795E-01
  4.675655E-01
  4.673726E-01
  4.686445E-01
  4.680000E-01
  4.689806E-01
  4.683321E-01
  4.694974E-01
  4.689748E-01
  4.699695E-01
  4.689002E-01
  4.691085E-01
  4.673045E-01
  4.671328E-01
  4.654737E-01
  4.659349E-01
  4.651800E-01
  4.665253E-01
  4.663888E-01
  4.679658E-01
  4.676895E-01
  4.688646E-01
  4.680708E-01
  4.687556E-01
  4.676186E-01
  4.681940E-01
  4.672169E-01
  4.681803E-01
  4.676881E-01
  4.690353E-01
  4.686243E-01
  4.696286E-01
  4.684756E-01
  4.685229E-01
  4.664904E-01
  4.660368E-01
  4.640817E-01
  4.643059E-01
  4.662011E-01
  4.669991E-01
  4.666199E-01
  4.678036E-01
  4.675811E-01
  4.686600E-01
  4.681493E-01
  4.688943E-01
  4.681160E-01
  4.686902E-01
  4.678021E-01
  4.682970E-01
  4.673985E-01
  4.680556E-01
  4.675789E-01
  4.688809E-01
  4.690639E-01
  4.707251E-01
  4.707031E-01
  4.715464E-01
  4.703272E-01
  4.700280E-01
  4.681597E-01
  4.679434E-01
  4.668247E-01
  4.677023E-01
  4.676054E-01
  4.691062E-01
  4.691092E-01
  4.702645E-01
  4.696740E-01
  4.702006E-01
  4.691022E-01
  4.693172E-01
  4.681064E-01
  4.683606E-01
  4.672691E-01
  4.676568E-01
  4.666813E-01
  4.671830E-01
  4.663653E-01
  4.671017E-01
  4.665768E-01
  4.675862E-01
  4.672133E-01
  4.681862E-01
  4.675975E-01
  4.682650E-01
  4.674137E-01
  4.679826E-01
  4.672575E-01
  4.681512E-01
  4.678406E-01
  4.690814E-01
  4.689043E-01
  4.699919E-01
  4.694096E-01
  4.699659E-01
  4.688800E-01
  4.690711E-01
  4.677915E-01
  4.679367E-01
  4.667310E-01
  4.670719E-01
  4.641224E-01
  4.653258E-01
  4.655323E-01
  4.672173E-01
  4.675315E-01
  4.689720E-01
  4.687778E-01
  4.695684E-01
  4.687097E-01
  4.689350E-01
  4.677061E-01
  4.678329E-01
  4.668248E-01
  4.674855E-01
  4.672356E-01
  4.686970E-01
  4.690442E-01
  4.706604E-01
  4.705832E-01
  4.712375E-01
  4.699005E-01
  4.693732E-01
  4.673130E-01
  4.667533E-01
  4.653317E-01
  4.658091E-01
  4.654169E-01
  4.665624E-01
  4.663350E-01
  4.672590E-01
  4.667072E-01
  4.674750E-01
  4.670343E-01
  4.680588E-01
  4.677662E-01
  4.686111E-01
  4.677700E-01
  4.678714E-01
  4.663944E-01
  4.662425E-01
  4.650067E-01
  4.654939E-01
  4.650490E-01
  4.662053E-01
  4.661227E-01
  4.672928E-01
  4.669585E-01
  4.677555E-01
  4.670652E-01
  4.676183E-01
  4.668433E-01
  4.674804E-01
  4.669349E-01
  4.678851E-01
  4.676323E-01
  4.687251E-01
  4.683511E-01
  4.690154E-01
  4.679697E-01
  4.678867E-01
  4.662395E-01
  4.658984E-01
  4.644390E-01
  4.647036E-01
  4.675057E-01
  4.680361E-01
  4.675821E-01
  4.681039E-01
  4.676340E-01
  4.680831E-01
  4.674762E-01
  4.677642E-01
  4.670288E-01
  4.672568E-01
  4.665360E-01
  4.668541E-01
  4.663231E-01
  4.669772E-01
  4.669507E-01
  4.682140E-01
  4.687267E-01
  4.702196E-01
  4.704587E-01
  4.711453E-01
  4.702336E-01
  4.697787E-01
  4.681107E-01
  4.675202E-01
  4.663348E-01
  4.666205E-01
  4.663726E-01
  4.673639E-01
  4.674391E-01
  4.683804E-01
  4.681477E-01
  4.686665E-01
  4.680131E-01
  4.681870E-01
  4.673049E-01
  4.673836E-01
  4.665381E-01
  4.667651E-01
  4.661473E-01
  4.666462E-01
  4.663083E-01
  4.670519E-01
  4.668672E-01
  4.676134E-01
  4.672484E-01
  4.676589E-01
  4.669018E-01
  4.670090E-01
  4.661730E-01
  4.664932E-01
  4.661264E-01
  4.670360E-01
  4.671836E-01
  4.683460E-01
  4.683805E-01
  4.690915E-01
  4.684960E-01
  4.686292E-01
  4.677086E-01
  4.678486E-01
  4.671948E-01
  4.676900E-01
  4.673095E-01
  4.679136E-01
  4.660248E-01
  4.667747E-01
  4.669863E-01
  4.676704E-01
  4.677159E-01
  4.681640E-01
  4.679101E-01
  4.680016E-01
  4.673700E-01
  4.671435E-01
  4.663617E-01
  4.662464E-01
  4.658717E-01
  4.664070E-01
  4.667899E-01
  4.680013E-01
  4.687868E-01
  4.699821E-01
  4.702755E-01
  4.705594E-01
  4.696989E-01
  4.688556E-01
  4.671893E-01
  4.660830E-01
  4.647514E-01
  4.644315E-01
  4.640470E-01
  4.645317E-01
  4.646351E-01
  4.653099E-01
  4.654660E-01
  4.662241E-01
  4.665407E-01
  4.674266E-01
  4.676533E-01
  4.681128E-01
  4.676312E-01
  4.673299E-01
  4.663303E-01
  4.659619E-01
  4.653587E-01
  4.656622E-01
  4.657130E-01
  4.663945E-01
  4.664358E-01
  4.667867E-01
  4.663677E-01
  4.663449E-01
  4.657866E-01
  4.658912E-01
  4.656548E-01
  4.661491E-01
  4.662442E-01
  4.669227E-01
  4.670126E-01
  4.674964E-01
  4.672380E-01
  4.672914E-01
  4.666246E-01
  4.664084E-01
  4.657025E-01
  4.657030E-01
  4.654102E-01
  4.658962E-01
  4.697777E-01
  4.695578E-01
  4.692910E-01
  4.685003E-01
  4.679318E-01
  4.670820E-01
  4.666181E-01
  4.659602E-01
  4.657283E-01
  4.653239E-01
  4.653640E-01
  4.652550E-01
  4.656247E-01
  4.658903E-01
  4.666723E-01
  4.673389E-01
  4.684102E-01
  4.691239E-01
  4.698936E-01
  4.699387E-01
  4.697816E-01
  4.688629E-01
  4.679669E-01
  4.667371E-01
  4.660243E-01
  4.653839E-01
  4.654719E-01
  4.656259E-01
  4.663326E-01
  4.668396E-01
  4.676122E-01
  4.679203E-01
  4.682831E-01
  4.680583E-01
  4.678868E-01
  4.672614E-01
  4.669302E-01
  4.664256E-01
  4.664533E-01
  4.664357E-01
  4.669338E-01
  4.672268E-01
  4.677654E-01
  4.677813E-01
  4.677677E-01
  4.670983E-01
  4.664829E-01
  4.655201E-01
  4.650649E-01
  4.647132E-01
  4.651535E-01
  4.657013E-01
  4.667487E-01
  4.674083E-01
  4.680432E-01
  4.679304E-01
  4.677380E-01
  4.670743E-01
  4.668306E-01
  4.666335E-01
  4.671758E-01
  4.677546E-01
  4.687475E-01
  4.692837E-01
  4.683012E-01
  4.680199E-01
  4.686117E-01
  4.678200E-01
  4.680253E-01
  4.670302E-01
  4.671719E-01
  4.661635E-01
  4.662845E-01
  4.652693E-01
  4.654828E-01
  4.647455E-01
  4.654405E-01
  4.653093E-01
  4.665869E-01
  4.668607E-01
  4.682644E-01
  4.683592E-01
  4.693109E-01
  4.687444E-01
  4.689112E-01
  4.675533E-01
  4.670761E-01
  4.653821E-01
  4.649783E-01
  4.637496E-01
  4.640594E-01
  4.635889E-01
  4.645385E-01
  4.645342E-01
  4.658147E-01
  4.660557E-01
  4.674756E-01
  4.676475E-01
  4.686801E-01
  4.681398E-01
  4.682943E-01
  4.669950E-01
  4.667916E-01
  4.656684E-01
  4.660799E-01
  4.657237E-01
  4.667072E-01
  4.664803E-01
  4.671119E-01
  4.662303E-01
  4.662101E-01
  4.649710E-01
  4.650402E-01
  4.642984E-01
  4.650773E-01
  4.650035E-01
  4.662029E-01
  4.662115E-01
  4.671860E-01
  4.667744E-01
  4.672740E-01
  4.664641E-01
  4.667461E-01
  4.659639E-01
  4.665239E-01
  4.661952E-01
  4.672339E-01
  4.672285E-01
  4.716553E-01
  4.702826E-01
  4.705056E-01
  4.683270E-01
  4.681410E-01
  4.659541E-01
  4.660617E-01
  4.643361E-01
  4.649593E-01
  4.637350E-01
  4.648148E-01
  4.639909E-01
  4.654072E-01
  4.648481E-01
  4.664523E-01
  4.660023E-01
  4.676323E-01
  4.671110E-01
  4.685507E-01
  4.677048E-01
  4.687019E-01
  4.673605E-01
  4.679166E-01
  4.663060E-01
  4.668471E-01
  4.654906E-01
  4.664997E-01
  4.657214E-01
  4.672954E-01
  4.669469E-01
  4.687091E-01
  4.682345E-01
  4.695480E-01
  4.683863E-01
  4.689503E-01
  4.671990E-01
  4.675220E-01
  4.659591E-01
  4.668399E-01
  4.660242E-01
  4.676015E-01
  4.672024E-01
  4.687616E-01
  4.678755E-01
  4.685888E-01
  4.667401E-01
  4.666876E-01
  4.645522E-01
  4.648338E-01
  4.635875E-01
  4.650515E-01
  4.649149E-01
  4.670781E-01
  4.670414E-01
  4.687289E-01
  4.678632E-01
  4.687066E-01
  4.673123E-01
  4.681431E-01
  4.672453E-01
  4.688672E-01
  4.687159E-01
  4.707119E-01
  4.703765E-01
  4.694547E-01
  4.681708E-01
  4.692046E-01
  4.674156E-01
  4.680820E-01
  4.661505E-01
  4.668662E-01
  4.650713E-01
  4.659229E-01
  4.642542E-01
  4.652860E-01
  4.639216E-01
  4.653842E-01
  4.644875E-01
  4.663153E-01
  4.655719E-01
  4.673227E-01
  4.663423E-01
  4.677979E-01
  4.665308E-01
  4.677150E-01
  4.661723E-01
  4.670864E-01
  4.653427E-01
  4.662114E-01
  4.646242E-01
  4.658191E-01
  4.646357E-01
  4.662207E-01
  4.653734E-01
  4.672443E-01
  4.666253E-01
  4.685992E-01
  4.678415E-01
  4.693493E-01
  4.678390E-01
  4.685123E-01
  4.663890E-01
  4.669306E-01
  4.652327E-01
  4.665895E-01
  4.657483E-01
  4.676296E-01
  4.667519E-01
  4.680552E-01
  4.663131E-01
  4.668368E-01
  4.647209E-01
  4.654142E-01
  4.639253E-01
  4.654574E-01
  4.647384E-01
  4.667743E-01
  4.662327E-01
  4.681725E-01
  4.673604E-01
  4.689434E-01
  4.677521E-01
  4.689941E-01
  4.675755E-01
  4.687745E-01
  4.675122E-01
  4.689859E-01
  4.679556E-01
  4.719268E-01
  4.700030E-01
  4.704303E-01
  4.679168E-01
  4.680672E-01
  4.656137E-01
  4.660906E-01
  4.641133E-01
  4.651054E-01
  4.636090E-01
  4.650138E-01
  4.638490E-01
  4.654950E-01
  4.644715E-01
  4.661593E-01
  4.651003E-01
  4.667171E-01
  4.655958E-01
  4.671822E-01
  4.660534E-01
  4.676252E-01
  4.664488E-01
  4.679402E-01
  4.666798E-01
  4.681251E-01
  4.668886E-01
  4.684374E-01
  4.673675E-01
  4.691046E-01
  4.681772E-01
  4.699227E-01
  4.687862E-01
  4.700724E-01
  4.682888E-01
  4.689061E-01
  4.666546E-01
  4.671960E-01
  4.653343E-01
  4.666485E-01
  4.657271E-01
  4.678710E-01
  4.674131E-01
  4.694964E-01
  4.684434E-01
  4.695492E-01
  4.674207E-01
  4.676887E-01
  4.652355E-01
  4.658054E-01
  4.641886E-01
  4.658697E-01
  4.653131E-01
  4.677291E-01
  4.674416E-01
  4.696774E-01
  4.689027E-01
  4.705513E-01
  4.692932E-01
  4.707021E-01
  4.694823E-01
  4.711254E-01
  4.701656E-01
  4.719009E-01
  4.707285E-01
  4.688837E-01
  4.677120E-01
  4.685506E-01
  4.672335E-01
  4.679271E-01
  4.665558E-01
  4.672789E-01
  4.659437E-01
  4.666447E-01
  4.652427E-01
  4.659230E-01
  4.646467E-01
  4.656262E-01
  4.647428E-01
  4.660631E-01
  4.653457E-01
  4.666297E-01
  4.657482E-01
  4.668570E-01
  4.658697E-01
  4.669488E-01
  4.659638E-01
  4.670379E-01
  4.660423E-01
  4.671295E-01
  4.661857E-01
  4.673377E-01
  4.664250E-01
  4.675569E-01
  4.666131E-01
  4.677724E-01
  4.669436E-01
  4.682399E-01
  4.674268E-01
  4.684879E-01
  4.671818E-01
  4.676549E-01
  4.659393E-01
  4.664257E-01
  4.652182E-01
  4.665468E-01
  4.661824E-01
  4.680036E-01
  4.675773E-01
  4.688191E-01
  4.675495E-01
  4.680268E-01
  4.663445E-01
  4.668559E-01