# vtk DataFile Version 2.0
title
ASCII
DATASET STRUCTURED_GRID
DIMENSIONS   64   64    1
POINTS   4096  float
  0.000000E+00  0.000000E+00  0.000000E+00
  0.000000E+00  3.906250E-01  0.000000E+00
  0.000000E+00  7.812500E-01  0.000000E+00
  0.000000E+00  1.171875E+00  0.000000E+00
  0.000000E+00  1.562500E+00  0.000000E+00
  0.000000E+00  1.953125E+00  0.000000E+00
  0.000000E+00  2.343750E+00  0.000000E+00
  0.000000E+00  2.734375E+00  0.000000E+00
  0.000000E+00  3.125000E+00  0.000000E+00
  0.000000E+00  3.515625E+00  0.000000E+00
  0.000000E+00  3.906250E+00  0.000000E+00
  0.000000E+00  4.296875E+00  0.000000E+00
  0.000000E+00  4.687500E+00  0.000000E+00
  0.000000E+00  5.078125E+00  0.000000E+00
  0.000000E+00  5.468750E+00  0.000000E+00
  0.000000E+00  5.859375E+00  0.000000E+00
  0.000000E+00  6.250000E+00  0.000000E+00
  0.000000E+00  6.640625E+00  0.000000E+00
  0.000000E+00  7.031250E+00  0.000000E+00
  0.000000E+00  7.421875E+00  0.000000E+00
  0.000000E+00  7.812500E+00  0.000000E+00
  0.000000E+00  8.203125E+00  0.000000E+00
  0.000000E+00  8.593750E+00  0.000000E+00
  0.000000E+00  8.984375E+00  0.000000E+00
  0.000000E+00  9.375000E+00  0.000000E+00
  0.000000E+00  9.765625E+00  0.000000E+00
  0.000000E+00  1.015625E+01  0.000000E+00
  0.000000E+00  1.054688E+01  0.000000E+00
  0.000000E+00  1.093750E+01  0.000000E+00
  0.000000E+00  1.132812E+01  0.000000E+00
  0.000000E+00  1.171875E+01  0.000000E+00
  0.000000E+00  1.210938E+01  0.000000E+00
  0.000000E+00  1.250000E+01  0.000000E+00
  0.000000E+00  1.289062E+01  0.000000E+00
  0.000000E+00  1.328125E+01  0.000000E+00
  0.000000E+00  1.367188E+01  0.000000E+00
  0.000000E+00  1.406250E+01  0.000000E+00
  0.000000E+00  1.445312E+01  0.000000E+00
  0.000000E+00  1.484375E+01  0.000000E+00
  0.000000E+00  1.523438E+01  0.000000E+00
  0.000000E+00  1.562500E+01  0.000000E+00
  0.000000E+00  1.601562E+01  0.000000E+00
  0.000000E+00  1.640625E+01  0.000000E+00
  0.000000E+00  1.679688E+01  0.000000E+00
  0.000000E+00  1.718750E+01  0.000000E+00
  0.000000E+00  1.757812E+01  0.000000E+00
  0.000000E+00  1.796875E+01  0.000000E+00
  0.000000E+00  1.835938E+01  0.000000E+00
  0.000000E+00  1.875000E+01  0.000000E+00
  0.000000E+00  1.914062E+01  0.000000E+00
  0.000000E+00  1.953125E+01  0.000000E+00
  0.000000E+00  1.992188E+01  0.000000E+00
  0.000000E+00  2.031250E+01  0.000000E+00
  0.000000E+00  2.070312E+01  0.000000E+00
  0.000000E+00  2.109375E+01  0.000000E+00
  0.000000E+00  2.148438E+01  0.000000E+00
  0.000000E+00  2.187500E+01  0.000000E+00
  0.000000E+00  2.226562E+01  0.000000E+00
  0.000000E+00  2.265625E+01  0.000000E+00
  0.000000E+00  2.304688E+01  0.000000E+00
  0.000000E+00  2.343750E+01  0.000000E+00
  0.000000E+00  2.382812E+01  0.000000E+00
  0.000000E+00  2.421875E+01  0.000000E+00
  0.000000E+00  2.460938E+01  0.000000E+00
  3.906250E-01  0.000000E+00  0.000000E+00
  3.906250E-01  3.906250E-01  0.000000E+00
  3.906250E-01  7.812500E-01  0.000000E+00
  3.906250E-01  1.171875E+00  0.000000E+00
  3.906250E-01  1.562500E+00  0.000000E+00
  3.906250E-01  1.953125E+00  0.000000E+00
  3.906250E-01  2.343750E+00  0.000000E+00
  3.906250E-01  2.734375E+00  0.000000E+00
  3.906250E-01  3.125000E+00  0.000000E+00
  3.906250E-01  3.515625E+00  0.000000E+00
  3.906250E-01  3.906250E+00  0.000000E+00
  3.906250E-01  4.296875E+00  0.000000E+00
  3.906250E-01  4.687500E+00  0.000000E+00
  3.906250E-01  5.078125E+00  0.000000E+00
  3.906250E-01  5.468750E+00  0.000000E+00
  3.906250E-01  5.859375E+00  0.000000E+00
  3.906250E-01  6.250000E+00  0.000000E+00
  3.906250E-01  6.640625E+00  0.000000E+00
  3.906250E-01  7.031250E+00  0.000000E+00
  3.906250E-01  7.421875E+00  0.000000E+00
  3.906250E-01  7.812500E+00  0.000000E+00
  3.906250E-01  8.203125E+00  0.000000E+00
  3.906250E-01  8.593750E+00  0.000000E+00
  3.906250E-01  8.984375E+00  0.000000E+00
  3.906250E-01  9.375000E+00  0.000000E+00
  3.906250E-01  9.765625E+00  0.000000E+00
  3.906250E-01  1.015625E+01  0.000000E+00
  3.906250E-01  1.054688E+01  0.000000E+00
  3.906250E-01  1.093750E+01  0.000000E+00
  3.906250E-01  1.132812E+01  0.000000E+00
  3.906250E-01  1.171875E+01  0.000000E+00
  3.906250E-01  1.210938E+01  0.000000E+00
  3.906250E-01  1.250000E+01  0.000000E+00
  3.906250E-01  1.289062E+01  0.000000E+00
  3.906250E-01  1.328125E+01  0.000000E+00
  3.906250E-01  1.367188E+01  0.000000E+00
  3.906250E-01  1.406250E+01  0.000000E+00
  3.906250E-01  1.445312E+01  0.000000E+00
  3.906250E-01  1.484375E+01  0.000000E+00
  3.906250E-01  1.523438E+01  0.000000E+00
  3.906250E-01  1.562500E+01  0.000000E+00
  3.906250E-01  1.601562E+01  0.000000E+00
  3.906250E-01  1.640625E+01  0.000000E+00
  3.906250E-01  1.679688E+01  0.000000E+00
  3.906250E-01  1.718750E+01  0.000000E+00
  3.906250E-01  1.757812E+01  0.000000E+00
  3.906250E-01  1.796875E+01  0.000000E+00
  3.906250E-01  1.835938E+01  0.000000E+00
  3.906250E-01  1.875000E+01  0.000000E+00
  3.906250E-01  1.914062E+01  0.000000E+00
  3.906250E-01  1.953125E+01  0.000000E+00
  3.906250E-01  1.992188E+01  0.000000E+00
  3.906250E-01  2.031250E+01  0.000000E+00
  3.906250E-01  2.070312E+01  0.000000E+00
  3.906250E-01  2.109375E+01  0.000000E+00
  3.906250E-01  2.148438E+01  0.000000E+00
  3.906250E-01  2.187500E+01  0.000000E+00
  3.906250E-01  2.226562E+01  0.000000E+00
  3.906250E-01  2.265625E+01  0.000000E+00
  3.906250E-01  2.304688E+01  0.000000E+00
  3.906250E-01  2.343750E+01  0.000000E+00
  3.906250E-01  2.382812E+01  0.000000E+00
  3.906250E-01  2.421875E+01  0.000000E+00
  3.906250E-01  2.460938E+01  0.000000E+00
  7.812500E-01  0.000000E+00  0.000000E+00
  7.812500E-01  3.906250E-01  0.000000E+00
  7.812500E-01  7.812500E-01  0.000000E+00
  7.812500E-01  1.171875E+00  0.000000E+00
  7.812500E-01  1.562500E+00  0.000000E+00
  7.812500E-01  1.953125E+00  0.000000E+00
  7.812500E-01  2.343750E+00  0.000000E+00
  7.812500E-01  2.734375E+00  0.000000E+00
  7.812500E-01  3.125000E+00  0.000000E+00
  7.812500E-01  3.515625E+00  0.000000E+00
  7.812500E-01  3.906250E+00  0.000000E+00
  7.812500E-01  4.296875E+00  0.000000E+00
  7.812500E-01  4.687500E+00  0.000000E+00
  7.812500E-01  5.078125E+00  0.000000E+00
  7.812500E-01  5.468750E+00  0.000000E+00
  7.812500E-01  5.859375E+00  0.000000E+00
  7.812500E-01  6.250000E+00  0.000000E+00
  7.812500E-01  6.640625E+00  0.000000E+00
  7.812500E-01  7.031250E+00  0.000000E+00
  7.812500E-01  7.421875E+00  0.000000E+00
  7.812500E-01  7.812500E+00  0.000000E+00
  7.812500E-01  8.203125E+00  0.000000E+00
  7.812500E-01  8.593750E+00  0.000000E+00
  7.812500E-01  8.984375E+00  0.000000E+00
  7.812500E-01  9.375000E+00  0.000000E+00
  7.812500E-01  9.765625E+00  0.000000E+00
  7.812500E-01  1.015625E+01  0.000000E+00
  7.812500E-01  1.054688E+01  0.000000E+00
  7.812500E-01  1.093750E+01  0.000000E+00
  7.812500E-01  1.132812E+01  0.000000E+00
  7.812500E-01  1.171875E+01  0.000000E+00
  7.812500E-01  1.210938E+01  0.000000E+00
  7.812500E-01  1.250000E+01  0.000000E+00
  7.812500E-01  1.289062E+01  0.000000E+00
  7.812500E-01  1.328125E+01  0.000000E+00
  7.812500E-01  1.367188E+01  0.000000E+00
  7.812500E-01  1.406250E+01  0.000000E+00
  7.812500E-01  1.445312E+01  0.000000E+00
  7.812500E-01  1.484375E+01  0.000000E+00
  7.812500E-01  1.523438E+01  0.000000E+00
  7.812500E-01  1.562500E+01  0.000000E+00
  7.812500E-01  1.601562E+01  0.000000E+00
  7.812500E-01  1.640625E+01  0.000000E+00
  7.812500E-01  1.679688E+01  0.000000E+00
  7.812500E-01  1.718750E+01  0.000000E+00
  7.812500E-01  1.757812E+01  0.000000E+00
  7.812500E-01  1.796875E+01  0.000000E+00
  7.812500E-01  1.835938E+01  0.000000E+00
  7.812500E-01  1.875000E+01  0.000000E+00
  7.812500E-01  1.914062E+01  0.000000E+00
  7.812500E-01  1.953125E+01  0.000000E+00
  7.812500E-01  1.992188E+01  0.000000E+00
  7.812500E-01  2.031250E+01  0.000000E+00
  7.812500E-01  2.070312E+01  0.000000E+00
  7.812500E-01  2.109375E+01  0.000000E+00
  7.812500E-01  2.148438E+01  0.000000E+00
  7.812500E-01  2.187500E+01  0.000000E+00
  7.812500E-01  2.226562E+01  0.000000E+00
  7.812500E-01  2.265625E+01  0.000000E+00
  7.812500E-01  2.304688E+01  0.000000E+00
  7.812500E-01  2.343750E+01  0.000000E+00
  7.812500E-01  2.382812E+01  0.000000E+00
  7.812500E-01  2.421875E+01  0.000000E+00
  7.812500E-01  2.460938E+01  0.000000E+00
  1.171875E+00  0.000000E+00  0.000000E+00
  1.171875E+00  3.906250E-01  0.000000E+00
  1.171875E+00  7.812500E-01  0.000000E+00
  1.171875E+00  1.171875E+00  0.000000E+00
  1.171875E+00  1.562500E+00  0.000000E+00
  1.171875E+00  1.953125E+00  0.000000E+00
  1.171875E+00  2.343750E+00  0.000000E+00
  1.171875E+00  2.734375E+00  0.000000E+00
  1.171875E+00  3.125000E+00  0.000000E+00
  1.171875E+00  3.515625E+00  0.000000E+00
  1.171875E+00  3.906250E+00  0.000000E+00
  1.171875E+00  4.296875E+00  0.000000E+00
  1.171875E+00  4.687500E+00  0.000000E+00
  1.171875E+00  5.078125E+00  0.000000E+00
  1.171875E+00  5.468750E+00  0.000000E+00
  1.171875E+00  5.859375E+00  0.000000E+00
  1.171875E+00  6.250000E+00  0.000000E+00
  1.171875E+00  6.640625E+00  0.000000E+00
  1.171875E+00  7.031250E+00  0.000000E+00
  1.171875E+00  7.421875E+00  0.000000E+00
  1.171875E+00  7.812500E+00  0.000000E+00
  1.171875E+00  8.203125E+00  0.000000E+00
  1.171875E+00  8.593750E+00  0.000000E+00
  1.171875E+00  8.984375E+00  0.000000E+00
  1.171875E+00  9.375000E+00  0.000000E+00
  1.171875E+00  9.765625E+00  0.000000E+00
  1.171875E+00  1.015625E+01  0.000000E+00
  1.171875E+00  1.054688E+01  0.000000E+00
  1.171875E+00  1.093750E+01  0.000000E+00
  1.171875E+00  1.132812E+01  0.000000E+00
  1.171875E+00  1.171875E+01  0.000000E+00
  1.171875E+00  1.210938E+01  0.000000E+00
  1.171875E+00  1.250000E+01  0.000000E+00
  1.171875E+00  1.289062E+01  0.000000E+00
  1.171875E+00  1.328125E+01  0.000000E+00
  1.171875E+00  1.367188E+01  0.000000E+00
  1.171875E+00  1.406250E+01  0.000000E+00
  1.171875E+00  1.445312E+01  0.000000E+00
[...]
POINT_DATA   4096
SCALARS CON  float  1
LOOKUP_TABLE default
  4.695301E-01
  4.684134E-01
  4.707259E-01
  4.692959E-01
  4.710473E-01
  4.690328E-01
  4.703671E-01
  4.681919E-01
  4.695990E-01
  4.676391E-01
  4.693088E-01
  4.676057E-01
  4.695219E-01
  4.680705E-01
  4.702380E-01
  4.689863E-01
  4.712151E-01
  4.698018E-01
  4.716114E-01
  4.695679E-01
  4.706616E-01
  4.679847E-01
  4.686836E-01
  4.659409E-01
  4.668991E-01
  4.646484E-01
  4.661876E-01
  4.644660E-01
  4.663929E-01
  4.649019E-01
  4.669484E-01
  4.655354E-01
  4.676646E-01
  4.663326E-01
  4.684844E-01
  4.670420E-01
  4.689039E-01
  4.670098E-01
  4.683495E-01
  4.660039E-01
  4.671080E-01
  4.648428E-01
  4.663607E-01
  4.647648E-01
  4.670499E-01
  4.661211E-01
  4.687914E-01
  4.678586E-01
  4.701461E-01
  4.685881E-01
  4.702311E-01
  4.682407E-01
  4.698103E-01
  4.681016E-01
  4.701468E-01
  4.688529E-01
  4.710162E-01
  4.694376E-01
  4.709932E-01
  4.687217E-01
  4.697917E-01
  4.674577E-01
  4.689296E-01
  4.673095E-01
  4.712995E-01
  4.705638E-01
  4.717178E-01
  4.703589E-01
  4.708047E-01
  4.689043E-01
  4.691551E-01
  4.674487E-01
  4.681849E-01
  4.670757E-01
  4.683448E-01
  4.676022E-01
  4.690679E-01
  4.684165E-01
  4.699407E-01
  4.693408E-01
  4.708684E-01
  4.701417E-01
  4.713433E-01
  4.700887E-01
  4.706455E-01
  4.687818E-01
  4.689330E-01
  4.669876E-01
  4.674096E-01
  4.660136E-01
  4.671115E-01
  4.663375E-01
  4.678507E-01
  4.672047E-01
  4.685689E-01
  4.675864E-01
  4.685592E-01
  4.672564E-01
  4.680564E-01
  4.667330E-01
  4.676070E-01
  4.663677E-01
  4.672704E-01
  4.659934E-01
  4.668428E-01
  4.655847E-01
  4.666031E-01
  4.656853E-01
  4.671566E-01
  4.666801E-01
  4.684393E-01
  4.680016E-01
  4.695488E-01
  4.687497E-01
  4.699519E-01
  4.689802E-01
  4.702545E-01
  4.695490E-01
  4.711277E-01
  4.705739E-01
  4.720181E-01
  4.710373E-01
  4.718956E-01
  4.703905E-01
  4.709956E-01
  4.696109E-01
  4.706542E-01
  4.698294E-01
  4.681180E-01
  4.686005E-01
  4.695524E-01
  4.697187E-01
  4.700218E-01
  4.694805E-01
  4.692667E-01
  4.685318E-01
  4.684367E-01
  4.680193E-01
  4.683006E-01
  4.682204E-01
  4.687699E-01
  4.689073E-01
  4.696426E-01
  4.699129E-01
  4.706599E-01
  4.707351E-01
  4.710285E-01
  4.704181E-01
  4.699110E-01
  4.685646E-01
  4.675709E-01
  4.661128E-01
  4.654056E-01
  4.645478E-01
  4.645957E-01
  4.644726E-01
  4.651006E-01
  4.653443E-01
  4.661410E-01
  4.664126E-01
  4.671521E-01
  4.673022E-01
  4.678377E-01
  4.676674E-01
  4.677546E-01
  4.670508E-01
  4.666217E-01
  4.655574E-01
  4.650539E-01
  4.642741E-01
  4.643949E-01
  4.644628E-01
  4.654645E-01
  4.662316E-01
  4.675752E-01
  4.682484E-01
  4.691150E-01
  4.691056E-01
  4.693314E-01
  4.689524E-01
  4.691994E-01
  4.691847E-01
  4.699332E-01
  4.702729E-01
  4.709888E-01
  4.708264E-01
  4.706964E-01
  4.696383E-01
  4.689058E-01
  4.677844E-01
  4.675688E-01
  4.673597E-01
  4.695024E-01
  4.703745E-01
  4.701132E-01
  4.703674E-01
  4.693509E-01
  4.689923E-01
  4.677224E-01
  4.675428E-01
  4.667978E-01
  4.672953E-01
  4.671714E-01
  4.680983E-01
  4.681877E-01
  4.691771E-01
  4.692694E-01
  4.702513E-01
  4.702996E-01
  4.711183E-01
  4.708018E-01
  4.710354E-01
  4.699928E-01
  4.695224E-01
  4.679897E-01
  4.673926E-01
  4.661469E-01
  4.661821E-01
  4.657500E-01
  4.665730E-01
  4.667164E-01
  4.677899E-01
  4.678449E-01
  4.685692E-01
  4.681495E-01
  4.684163E-01
  4.676588E-01
  4.677434E-01
  4.669320E-01
  4.670298E-01
  4.662455E-01
  4.663715E-01
  4.656510E-01
  4.659351E-01
  4.655089E-01
  4.662108E-01
  4.662456E-01
  4.673262E-01
  4.675376E-01
  4.685355E-01
  4.684455E-01
  4.690552E-01
  4.686628E-01
  4.691938E-01
  4.689835E-01
  4.698677E-01
  4.699969E-01
  4.710061E-01
  4.709215E-01
  4.713946E-01
  4.706137E-01
  4.704774E-01
  4.694036E-01
  4.694041E-01
  4.688398E-01
  4.695124E-01
  4.661697E-01
  4.680452E-01
  4.677338E-01
  4.693384E-01
  4.683993E-01
  4.692919E-01
  4.678174E-01
  4.685009E-01
  4.671463E-01
  4.681674E-01
  4.672185E-01
  4.686004E-01
  4.679260E-01
  4.695124E-01
  4.689986E-01
  4.706907E-01
  4.701640E-01
  4.716345E-01
  4.706157E-01
  4.713411E-01
  4.694421E-01
  4.693457E-01
  4.668901E-01
  4.666505E-01
  4.645018E-01
  4.649340E-01
  4.636495E-01
  4.649411E-01
  4.643537E-01
  4.661018E-01
  4.657320E-01
  4.675097E-01
  4.670379E-01
  4.686109E-01
  4.678277E-01
  4.689692E-01
  4.676457E-01
  4.682000E-01
  4.663567E-01
  4.665961E-01
  4.647563E-01
  4.653613E-01
  4.641969E-01
  4.656423E-01
  4.652817E-01
  4.672921E-01
  4.671152E-01
  4.688937E-01
  4.681612E-01
  4.692562E-01
  4.679518E-01
  4.687858E-01
  4.676123E-01
  4.688908E-01
  4.682576E-01
  4.698956E-01
  4.692201E-01
  4.703497E-01
  4.688335E-01
  4.690814E-01
  4.669780E-01
  4.671750E-01
  4.656011E-01
  4.667319E-01
  4.676602E-01
  4.695271E-01
  4.683303E-01
  4.696926E-01
  4.678481E-01
  4.686663E-01
  4.665828E-01
  4.675453E-01
  4.659228E-01
  4.674934E-01
  4.664368E-01
  4.684039E-01
  4.675498E-01
  4.695859E-01
  4.687516E-01
  4.707998E-01
  4.699345E-01
  4.718152E-01
  4.705559E-01
  4.717970E-01
  4.697412E-01
  4.702105E-01
  4.676206E-01
  4.679579E-01
  4.656915E-01
  4.667299E-01
  4.653600E-01
  4.672647E-01
  4.665314E-01
  4.687241E-01
  4.679160E-01
  4.697515E-01
  4.684411E-01
  4.697731E-01
  4.680648E-01
  4.691498E-01
  4.673315E-01
  4.683974E-01
  4.666076E-01
  4.677358E-01
  4.660613E-01
  4.673893E-01
  4.660107E-01
  4.676957E-01
  4.666525E-01
  4.685473E-01
  4.675081E-01
  4.691887E-01
  4.677904E-01
  4.691060E-01
  4.674892E-01
  4.688333E-01
  4.674916E-01
  4.692477E-01
  4.682739E-01
  4.701753E-01
  4.690251E-01
  4.704564E-01
  4.686946E-01
  4.695929E-01
  4.675780E-01
  4.686028E-01
  4.670480E-01
  4.686880E-01
  4.646419E-01
  4.670216E-01
  4.661991E-01
  4.685008E-01
  4.672457E-01
  4.689710E-01
  4.672168E-01
  4.686661E-01
  4.668903E-01
  4.685084E-01
  4.669899E-01
  4.688732E-01
  4.675981E-01
  4.697116E-01
  4.686585E-01
  4.709487E-01
  4.699394E-01
  4.720340E-01
  4.705223E-01
  4.718325E-01
  4.693903E-01
  4.698394E-01
  4.668306E-01
  4.671628E-01
  4.645160E-01
  4.655850E-01
  4.638555E-01
  4.658099E-01
  4.647731E-01
  4.671573E-01
  4.663025E-01
  4.686831E-01
  4.676999E-01
  4.698533E-01
  4.685359E-01
  4.702332E-01
  4.683539E-01
  4.694555E-01
  4.670690E-01
  4.678887E-01
  4.655457E-01
  4.667538E-01
  4.650653E-01
  4.670332E-01
  4.660120E-01
  4.683783E-01
  4.673857E-01
  4.694179E-01
  4.678440E-01
  4.692402E-01
  4.671859E-01
  4.684157E-01
  4.665567E-01
  4.682551E-01
  4.669375E-01
  4.690067E-01
  4.676974E-01
  4.693542E-01
  4.673229E-01
  4.681965E-01
  4.656147E-01
  4.663953E-01
  4.642415E-01
  4.658449E-01
  4.665598E-01
  4.684619E-01
  4.671706E-01
  4.688280E-01
  4.671522E-01
  4.684484E-01
  4.665795E-01
  4.679189E-01
  4.662993E-01
  4.679913E-01
  4.667096E-01
  4.686500E-01
  4.675237E-01
  4.695761E-01
  4.685698E-01
  4.707508E-01
  4.698106E-01
  4.718809E-01
  4.705603E-01
  4.719746E-01
  4.698339E-01
  4.704690E-01
  4.678170E-01
  4.683718E-01
  4.661076E-01
  4.674155E-01
  4.660647E-01
  4.682099E-01
  4.674272E-01
  4.697724E-01
  4.688320E-01
  4.707606E-01
  4.692883E-01
  4.707081E-01
  4.688449E-01
  4.700274E-01
  4.680648E-01
  4.692444E-01
  4.673386E-01
  4.686206E-01
  4.668700E-01
  4.683708E-01
  4.668925E-01
  4.686734E-01
  4.674083E-01
  4.692599E-01
  4.678826E-01
  4.694612E-01
  4.677383E-01
  4.690250E-01
  4.671804E-01
  4.685741E-01
  4.670359E-01
  4.688241E-01
  4.676146E-01
  4.695279E-01
  4.681729E-01
  4.697028E-01
  4.678498E-01
  4.689369E-01
  4.668505E-01
  4.679954E-01
  4.662363E-01
  4.678599E-01
  4.639842E-01
  4.660490E-01
  4.654478E-01
  4.677245E-01
  4.669829E-01
  4.688843E-01
  4.676885E-01
  4.691888E-01
  4.677173E-01
  4.690807E-01
  4.675942E-01
  4.690483E-01
  4.677544E-01
  4.694978E-01
  4.685540E-01
  4.706213E-01
  4.698458E-01
  4.717971E-01
  4.705536E-01
  4.717264E-01
  4.695537E-01
  4.698831E-01
  4.671865E-01
  4.674590E-01
  4.651806E-01
  4.662163E-01
  4.648321E-01
  4.666764E-01
  4.658686E-01
  4.680141E-01
  4.672779E-01
  4.693489E-01
  4.684584E-01
  4.703130E-01
  4.691195E-01
  4.705553E-01
  4.688372E-01
  4.697166E-01
  4.675368E-01
  4.681848E-01
  4.660935E-01
  4.671514E-01
  4.656953E-01
  4.674468E-01
  4.665573E-01
  4.686020E-01
  4.676680E-01
  4.693656E-01
  4.679040E-01
  4.690651E-01
  4.672278E-01
  4.682890E-01
  4.666495E-01
  4.681220E-01
  4.669396E-01
  4.687179E-01
  4.675340E-01
  4.689526E-01
  4.671341E-01
  4.678408E-01
  4.654789E-01
  4.660157E-01
  4.639445E-01
  4.651672E-01
  4.662986E-01
  4.677023E-01
  4.667973E-01
  4.682217E-01
  4.672033E-01
  4.684535E-01
  4.672795E-01
  4.684449E-01
  4.672657E-01
  4.684800E-01
  4.673719E-01
  4.686699E-01
  4.676799E-01
  4.691643E-01
  4.684364E-01
  4.702067E-01
  4.696765E-01
  4.714227E-01
  4.705562E-01
  4.716655E-01
  4.699949E-01
  4.703532E-01
  4.682138E-01
  4.685377E-01
  4.668150E-01
  4.678827E-01
  4.670141E-01
  4.688130E-01
  4.683782E-01
  4.702436E-01
  4.695463E-01
  4.709368E-01
  4.696980E-01
  4.706073E-01
  4.690257E-01
  4.697520E-01
  4.681251E-01
  4.689042E-01
  4.673937E-01
  4.683355E-01
  4.670299E-01
  4.682121E-01
  4.671586E-01
  4.685576E-01
  4.676282E-01
  4.690151E-01
  4.679322E-01
  4.690705E-01
  4.677312E-01
  4.687038E-01
  4.673608E-01
  4.685047E-01
  4.674532E-01
  4.689038E-01
  4.680565E-01
  4.695213E-01
  4.684733E-01
  4.695689E-01
  4.680846E-01
  4.688000E-01
  4.670971E-01
  4.678123E-01
  4.663206E-01
  4.673922E-01
  4.640634E-01
  4.655966E-01
  4.654033E-01
  4.673320E-01
  4.672000E-01
  4.688981E-01
  4.683409E-01
  4.695334E-01
  4.684923E-01
  4.693016E-01
  4.680354E-01
  4.688171E-01
  4.677371E-01
  4.688957E-01
  4.683052E-01
  4.699323E-01
  4.696258E-01
  4.712110E-01
  4.704753E-01
  4.713019E-01
  4.696541E-01
  4.696593E-01
  4.675110E-01
  4.674720E-01
  4.657296E-01
  4.664061E-01
  4.654738E-01
  4.668492E-01
  4.663779E-01
  4.679561E-01
  4.674930E-01
  4.689758E-01
  4.683755E-01
  4.696841E-01
  4.688338E-01
  4.697786E-01
  4.684601E-01
  4.689096E-01
  4.671963E-01
  4.674808E-01
  4.659063E-01
  4.666157E-01
  4.656439E-01
  4.669707E-01
  4.664682E-01
  4.680067E-01
  4.674312E-01
  4.686690E-01
  4.676822E-01
  4.685360E-01
  4.673115E-01
  4.681396E-01
  4.670952E-01
  4.682306E-01
  4.674906E-01
  4.687853E-01
  4.679529E-01
  4.688756E-01
  4.674620E-01
  4.677500E-01
  4.658430E-01
  4.659488E-01
  4.642565E-01
  4.649438E-01
  4.666901E-01
  4.676109E-01
  4.670480E-01
  4.680480E-01
  4.674695E-01
  4.683804E-01
  4.676711E-01
  4.684410E-01
  4.676044E-01
  4.682790E-01
  4.673996E-01
  4.681130E-01
  4.673864E-01
  4.683813E-01
  4.680368E-01
  4.694277E-01
  4.693596E-01
  4.707710E-01
  4.703877E-01
  4.711737E-01
  4.699963E-01
  4.700378E-01
  4.683857E-01
  4.683640E-01
  4.670716E-01
  4.677122E-01
  4.671801E-01
  4.684635E-01
  4.682997E-01
  4.696179E-01
  4.691956E-01
  4.700711E-01
  4.691540E-01
  4.695962E-01
  4.683779E-01
  4.686742E-01
  4.674520E-01
  4.678548E-01
  4.668156E-01
  4.674490E-01
  4.666615E-01
  4.675379E-01
  4.669478E-01
  4.679367E-01
  4.673464E-01
  4.682222E-01
  4.674431E-01
  4.681235E-01
  4.672222E-01
  4.679144E-01
  4.671733E-01
  4.681316E-01
  4.676754E-01
  4.688355E-01
  4.684185E-01
  4.694273E-01
  4.687010E-01
  4.693218E-01
  4.682268E-01
  4.685829E-01
  4.673768E-01
  4.677830E-01
  4.667593E-01
  4.674289E-01
  4.647729E-01
  4.658660E-01
  4.659372E-01
  4.673429E-01
  4.674583E-01
  4.686566E-01
  4.683755E-01
  4.690773E-01
  4.682988E-01
  4.685983E-01
  4.675954E-01
  4.679052E-01
  4.671627E-01
  4.679419E-01
  4.677743E-01
  4.690808E-01
  4.692249E-01
  4.704956E-01
  4.702101E-01
  4.707258E-01
  4.695341E-01
  4.692239E-01
  4.675016E-01
  4.670825E-01
  4.656713E-01
  4.658615E-01
  4.651690E-01
  4.660050E-01
  4.657714E-01
  4.668566E-01
  4.667091E-01
  4.677839E-01
  4.675681E-01
  4.685088E-01
  4.680568E-01
  4.686365E-01
  4.677284E-01
  4.678493E-01
  4.666074E-01
  4.666306E-01
  4.655706E-01
  4.660076E-01
  4.654700E-01
  4.663851E-01
  4.661550E-01
  4.671489E-01
  4.667905E-01
  4.675325E-01
  4.669078E-01
  4.674655E-01
  4.667947E-01
  4.674490E-01
  4.669735E-01
  4.678430E-01
  4.675110E-01
  4.683731E-01
  4.678408E-01
  4.683235E-01
  4.673067E-01
  4.673191E-01
  4.659792E-01
  4.659218E-01
  4.648086E-01
  4.652397E-01
  4.677314E-01
  4.681808E-01
  4.678532E-01
  4.681744E-01
  4.677156E-01
  4.679220E-01
  4.673734E-01
  4.675175E-01
  4.669371E-01
  4.670886E-01
  4.665733E-01
  4.668734E-01
  4.666117E-01
  4.672696E-01
  4.674287E-01
  4.684820E-01
  4.688910E-01
  4.699346E-01
  4.700142E-01
  4.704402E-01
  4.697433E-01
  4.694277E-01
  4.682208E-01
  4.677594E-01
  4.667947E-01
  4.668745E-01
  4.665837E-01
  4.672844E-01
  4.674134E-01
  4.682589E-01
  4.682645E-01
  4.687879E-01
  4.683740E-01
  4.684833E-01
  4.677438E-01
  4.676678E-01
  4.669026E-01
  4.669503E-01
  4.664235E-01
  4.667707E-01
  4.665389E-01
  4.671095E-01
  4.669740E-01
  4.674868E-01
  4.671537E-01
  4.673877E-01
  4.667869E-01
  4.668640E-01
  4.662902E-01
  4.665950E-01
  4.663975E-01
  4.671191E-01
  4.672495E-01
  4.681048E-01
  4.681326E-01
  4.686852E-01
  4.683103E-01
  4.684865E-01
  4.678673E-01
  4.679815E-01
  4.674664E-01
  4.677840E-01
  4.674862E-01
  4.679635E-01
  4.661260E-01
  4.666244E-01
  4.669698E-01
  4.674956E-01
  4.677100E-01
  4.679779E-01
  4.678556E-01
  4.677658E-01
  4.673285E-01
  4.670321E-01
  4.665552E-01
  4.664232E-01
  4.663129E-01
  4.666968E-01
  4.671481E-01
  4.680016E-01
  4.686922E-01
  4.694564E-01
  4.697062E-01
  4.697476E-01
  4.691441E-01
  4.683961E-01
  4.672483E-01
  4.663152E-01
  4.653558E-01
  4.649025E-01
  4.645730E-01
  4.647531E-01
  4.649556E-01
  4.655217E-01
  4.659668E-01
  4.666500E-01
  4.670905E-01
  4.676306E-01
  4.677732E-01
  4.678771E-01
  4.675161E-01
  4.671666E-01
  4.665280E-01
  4.661574E-01
  4.657512E-01
  4.657753E-01
  4.657814E-01
  4.660955E-01
  4.661887E-01
  4.663924E-01
  4.662589E-01
  4.662370E-01
  4.659826E-01
  4.659976E-01
  4.659277E-01
  4.662123E-01
  4.664093E-01
  4.668738E-01
  4.671053E-01
  4.674400E-01
  4.674003E-01
  4.673821E-01
  4.669916E-01
  4.667123E-01
  4.662198E-01
  4.660281E-01
  4.657945E-01
  4.659707E-01
  4.693087E-01
  4.689890E-01
  4.690153E-01
  4.682699E-01
  4.679815E-01
  4.670743E-01
  4.667767E-01
  4.659837E-01
  4.658845E-01
  4.653405E-01
  4.655226E-01
  4.652888E-01
  4.658123E-01
  4.659441E-01
  4.668267E-01
  4.672519E-01
  4.682842E-01
  4.686428E-01
  4.693572E-01
  4.691749E-01
  4.692220E-01
  4.683912E-01
  4.679613E-01
  4.669378E-01
  4.666374E-01
  4.660195E-01
  4.662877E-01
  4.662570E-01
  4.669960E-01
  4.672253E-01
  4.679755E-01
  4.679865E-01
  4.683550E-01
  4.679172E-01
  4.678760E-01
  4.671625E-01
  4.670425E-01
  4.664623E-01
  4.666482E-01
  4.664585E-01
  4.670036E-01
  4.670281E-01
  4.675646E-01
  4.673436E-01
  4.674580E-01
  4.667613E-01
  4.664986E-01
  4.656573E-01
  4.655525E-01
  4.651485E-01
  4.656469E-01
  4.658419E-01
  4.667644E-01
  4.670958E-01
  4.678515E-01
  4.677986E-01
  4.681068E-01
  4.677080E-01
  4.678863E-01
  4.675982E-01
  4.680582E-01
  4.680917E-01
  4.687727E-01
  4.688285E-01
  4.677638E-01
  4.673533E-01
  4.681125E-01
  4.674866E-01
  4.679740E-01
  4.670717E-01
  4.673196E-01
  4.662438E-01
  4.664068E-01
  4.653571E-01
  4.656773E-01
  4.649237E-01
  4.656604E-01
  4.653900E-01
  4.665911E-01
  4.666658E-01
  4.680021E-01
  4.679480E-01
  4.688928E-01
  4.682469E-01
  4.685123E-01
  4.672365E-01
  4.670499E-01
  4.655855E-01
  4.654954E-01
  4.643702E-01
  4.647747E-01
  4.641994E-01
  4.651247E-01
  4.649853E-01
  4.662283E-01
  4.662628E-01
  4.675087E-01
  4.673527E-01
  4.682199E-01
  4.675522E-01
  4.678838E-01
  4.667947E-01
  4.669365E-01
  4.659348E-01
  4.663886E-01
  4.657882E-01
  4.665670E-01
  4.660878E-01
  4.667464E-01
  4.659703E-01
  4.662913E-01
  4.652856E-01
  4.655876E-01
  4.647940E-01
  4.654787E-01
  4.651259E-01
  4.661879E-01
  4.660564E-01
  4.671421E-01
  4.668501E-01
  4.676491E-01
  4.670286E-01
  4.675457E-01
  4.667610E-01
  4.672664E-01
  4.666104E-01
  4.673306E-01
  4.668954E-01
  4.707908E-01
  4.695517E-01
  4.699661E-01
  4.681660E-01
  4.682060E-01
  4.662706E-01
  4.664064E-01
  4.647455E-01
  4.652626E-01
  4.640227E-01
  4.649530E-01
  4.640942E-01
  4.653659E-01
  4.648063E-01
  4.663254E-01
  4.659387E-01
  4.675234E-01
  4.670632E-01
  4.684211E-01
  4.675994E-01
  4.685177E-01
  4.672640E-01
  4.678524E-01
  4.664477E-01
  4.671000E-01
  4.659585E-01
  4.670099E-01
  4.663078E-01
  4.677340E-01
  4.672509E-01
  4.686830E-01
  4.679827E-01
  4.690172E-01
  4.678293E-01
  4.684062E-01
  4.669123E-01
  4.674234E-01
  4.661300E-01
  4.670571E-01
  4.662751E-01
  4.676509E-01
  4.671047E-01
  4.684100E-01
  4.674846E-01
  4.681981E-01
  4.666392E-01
  4.668731E-01
  4.651470E-01
  4.655958E-01
  4.644222E-01
  4.656144E-01
  4.651739E-01
  4.668974E-01
  4.666669E-01
  4.682689E-01
  4.676817E-01
  4.688557E-01
  4.679388E-01
  4.689946E-01
  4.681888E-01
  4.695047E-01
  4.689646E-01
  4.704018E-01
  4.697381E-01
  4.688678E-01
  4.677193E-01
  4.687138E-01
  4.673502E-01
  4.681141E-01
  4.665517E-01
  4.671780E-01
  4.655517E-01
  4.661921E-01
  4.646639E-01
  4.654957E-01
  4.642543E-01
  4.654501E-01
  4.646050E-01
  4.661623E-01
  4.655713E-01
  4.672188E-01
  4.665305E-01
  4.679098E-01
  4.668354E-01
  4.677876E-01
  4.663285E-01
  4.670104E-01
  4.654408E-01
  4.661815E-01
  4.648152E-01
  4.658564E-01
  4.648345E-01
  4.662175E-01
  4.654989E-01
  4.671152E-01
  4.665233E-01
  4.681188E-01
  4.673289E-01
  4.685561E-01
  4.672909E-01
  4.680528E-01
  4.664698E-01
  4.671651E-01
  4.657878E-01
  4.668802E-01
  4.659335E-01
  4.673172E-01
  4.664055E-01
  4.675551E-01
  4.662355E-01
  4.669648E-01
  4.653743E-01
  4.660843E-01
  4.647381E-01
  4.658846E-01
  4.650474E-01
  4.666515E-01
  4.661265E-01
  4.678502E-01
  4.672529E-01
  4.687520E-01
  4.678439E-01
  4.690242E-01
  4.678618E-01
  4.689004E-01
  4.677171E-01
  4.688207E-01
  4.677242E-01
  4.713409E-01
  4.697357E-01
  4.701096E-01
  4.680798E-01
  4.682220E-01
  4.661825E-01
  4.665107E-01
  4.647897E-01
  4.654944E-01
  4.641466E-01
  4.651856E-01
  4.641230E-01
  4.654038E-01
  4.645481E-01
  4.660021E-01
  4.652762E-01
  4.667994E-01
  4.660653E-01
  4.674970E-01
  4.666003E-01
  4.678295E-01
  4.667361E-01
  4.678226E-01
  4.666776E-01
  4.678188E-01
  4.668219E-01
  4.681661E-01
  4.673709E-01
  4.688528E-01
  4.680753E-01
  4.694200E-01
  4.683490E-01
  4.692835E-01
  4.677657E-01
  4.683244E-01
  4.666101E-01
  4.672274E-01
  4.658402E-01
  4.669893E-01
  4.662062E-01
  4.678643E-01
  4.673419E-01
  4.689224E-01
  4.679906E-01
  4.689368E-01
  4.673243E-01
  4.677411E-01
  4.659069E-01
  4.664771E-01
  4.651310E-01
  4.663910E-01
  4.657552E-01
  4.675743E-01
  4.672346E-01
  4.690638E-01
  4.685115E-01
  4.700241E-01
  4.691797E-01
  4.705154E-01
  4.696326E-01
  4.710202E-01
  4.701832E-01
  4.715079E-01
  4.704325E-01
  4.687771E-01
  4.677492E-01
  4.683588E-01
  4.673661E-01
  4.679744E-01
  4.669492E-01
  4.674966E-01
  4.663862E-01
  4.668402E-01
  4.656622E-01
  4.661192E-01
  4.650522E-01
  4.657366E-01
  4.649806E-01
  4.659926E-01
  4.655018E-01
  4.666536E-01
  4.661510E-01
  4.671568E-01
  4.664254E-01
  4.671874E-01
  4.662605E-01
  4.669167E-01
  4.659856E-01
  4.667212E-01
  4.659157E-01
  4.667832E-01
  4.660890E-01
  4.670419E-01
  4.664174E-01
  4.674327E-01
  4.668527E-01
  4.678604E-01
  4.671781E-01
  4.679682E-01
  4.669822E-01
  4.674672E-01
  4.662890E-01
  4.667888E-01
  4.658573E-01
  4.667690E-01
  4.662752E-01
  4.674932E-01
  4.670643E-01
  4.680872E-01
  4.672805E-01
  4.678805E-01
  4.667473E-01
  4.672129E-01