# vtk DataFile Version 2.0
title
ASCII
DATASET STRUCTURED_GRID
DIMENSIONS   64   64    1
POINTS   4096  float
  0.000000E+00  0.000000E+00  0.000000E+00
  0.000000E+00  3.906250E-01  0.000000E+00
  0.000000E+00  7.812500E-01  0.000000E+00
  0.000000E+00  1.171875E+00  0.000000E+00
  0.000000E+00  1.562500E+00  0.000000E+00
  0.000000E+00  1.953125E+00  0.000000E+00
  0.000000E+00  2.343750E+00  0.000000E+00
  0.000000E+00  2.734375E+00  0.000000E+00
  0.000000E+00  3.125000E+00  0.000000E+00
  0.000000E+00  3.515625E+00  0.000000E+00
  0.000000E+00  3.906250E+00  0.000000E+00
  0.000000E+00  4.296875E+00  0.000000E+00
  0.000000E+00  4.687500E+00  0.000000E+00
  0.000000E+00  5.078125E+00  0.000000E+00
  0.000000E+00  5.468750E+00  0.000000E+00
  0.000000E+00  5.859375E+00  0.000000E+00
  0.000000E+00  6.250000E+00  0.000000E+00
  0.000000E+00  6.640625E+00  0.000000E+00
  0.000000E+00  7.031250E+00  0.000000E+00
  0.000000E+00  7.421875E+00  0.000000E+00
  0.000000E+00  7.812500E+00  0.000000E+00
  0.000000E+00  8.203125E+00  0.000000E+00
  0.000000E+00  8.593750E+00  0.000000E+00
  0.000000E+00  8.984375E+00  0.000000E+00
  0.000000E+00  9.375000E+00  0.000000E+00
  0.000000E+00  9.765625E+00  0.000000E+00
  0.000000E+00  1.015625E+01  0.000000E+00
  0.000000E+00  1.054688E+01  0.000000E+00
  0.000000E+00  1.093750E+01  0.000000E+00
  0.000000E+00  1.132812E+01  0.000000E+00
  0.000000E+00  1.171875E+01  0.000000E+00
  0.000000E+00  1.210938E+01  0.000000E+00
  0.000000E+00  1.250000E+01  0.000000E+00
  0.000000E+00  1.289062E+01  0.000000E+00
  0.000000E+00  1.328125E+01  0.000000E+00
  0.000000E+00  1.367188E+01  0.000000E+00
  0.000000E+00  1.406250E+01  0.000000E+00
  0.000000E+00  1.445312E+01  0.000000E+00
  0.000000E+00  1.484375E+01  0.000000E+00
  0.000000E+00  1.523438E+01  0.000000E+00
  0.000000E+00  1.562500E+01  0.000000E+00
  0.000000E+00  1.601562E+01  0.000000E+00
  0.000000E+00  1.640625E+01  0.000000E+00
  0.000000E+00  1.679688E+01  0.000000E+00
  0.000000E+00  1.718750E+01  0.000000E+00
  0.000000E+00  1.757812E+01  0.000000E+00
  0.000000E+00  1.796875E+01  0.000000E+00
  0.000000E+00  1.835938E+01  0.000000E+00
  0.000000E+00  1.875000E+01  0.000000E+00
  0.000000E+00  1.914062E+01  0.000000E+00
  0.000000E+00  1.953125E+01  0.000000E+00
  0.000000E+00  1.992188E+01  0.000000E+00
  0.000000E+00  2.031250E+01  0.000000E+00
  0.000000E+00  2.070312E+01  0.000000E+00
  0.000000E+00  2.109375E+01  0.000000E+00
  0.000000E+00  2.148438E+01  0.000000E+00
  0.000000E+00  2.187500E+01  0.000000E+00
  0.000000E+00  2.226562E+01  0.000000E+00
  0.000000E+00  2.265625E+01  0.000000E+00
  0.000000E+00  2.304688E+01  0.000000E+00
  0.000000E+00  2.343750E+01  0.000000E+00
  0.000000E+00  2.382812E+01  0.000000E+00
  0.000000E+00  2.421875E+01  0.000000E+00
  0.000000E+00  2.460938E+01  0.000000E+00
  3.906250E-01  0.000000E+00  0.000000E+00
  3.906250E-01  3.906250E-01  0.000000E+00
  3.906250E-01  7.812500E-01  0.000000E+00
  3.906250E-01  1.171875E+00  0.000000E+00
  3.906250E-01  1.562500E+00  0.000000E+00
  3.906250E-01  1.953125E+00  0.000000E+00
  3.906250E-01  2.343750E+00  0.000000E+00
  3.906250E-01  2.734375E+00  0.000000E+00
  3.906250E-01  3.125000E+00  0.000000E+00
  3.906250E-01  3.515625E+00  0.000000E+00
  3.906250E-01  3.906250E+00  0.000000E+00
  3.906250E-01  4.296875E+00  0.000000E+00
  3.906250E-01  4.687500E+00  0.000000E+00
  3.906250E-01  5.078125E+00  0.000000E+00
  3.906250E-01  5.468750E+00  0.000000E+00
  3.906250E-01  5.859375E+00  0.000000E+00
  3.906250E-01  6.250000E+00  0.000000E+00
  3.906250E-01  6.640625E+00  0.000000E+00
  3.906250E-01  7.031250E+00  0.000000E+00
  3.906250E-01  7.421875E+00  0.000000E+00
  3.906250E-01  7.812500E+00  0.000000E+00
  3.906250E-01  8.203125E+00  0.000000E+00
  3.906250E-01  8.593750E+00  0.000000E+00
  3.906250E-01  8.984375E+00  0.000000E+00
  3.906250E-01  9.375000E+00  0.000000E+00
  3.906250E-01  9.765625E+00  0.000000E+00
  3.906250E-01  1.015625E+01  0.000000E+00
  3.906250E-01  1.054688E+01  0.000000E+00
  3.906250E-01  1.093750E+01  0.000000E+00
  3.906250E-01  1.132812E+01  0.000000E+00
  3.906250E-01  1.171875E+01  0.000000E+00
  3.906250E-01  1.210938E+01  0.000000E+00
  3.906250E-01  1.250000E+01  0.000000E+00
  3.906250E-01  1.289062E+01  0.000000E+00
  3.906250E-01  1.328125E+01  0.000000E+00
  3.906250E-01  1.367188E+01  0.000000E+00
  3.906250E-01  1.406250E+01  0.000000E+00
  3.906250E-01  1.445312E+01  0.000000E+00
  3.906250E-01  1.484375E+01  0.000000E+00
  3.906250E-01  1.523438E+01  0.000000E+00
  3.906250E-01  1.562500E+01  0.000000E+00
  3.906250E-01  1.601562E+01  0.000000E+00
  3.906250E-01  1.640625E+01  0.000000E+00
  3.906250E-01  1.679688E+01  0.000000E+00
  3.906250E-01  1.718750E+01  0.000000E+00
  3.906250E-01  1.757812E+01  0.000000E+00
  3.906250E-01  1.796875E+01  0.000000E+00
  3.906250E-01  1.835938E+01  0.000000E+00
  3.906250E-01  1.875000E+01  0.000000E+00
  3.906250E-01  1.914062E+01  0.000000E+00
  3.906250E-01  1.953125E+01  0.000000E+00
  3.906250E-01  1.992188E+01  0.000000E+00
  3.906250E-01  2.031250E+01  0.000000E+00
  3.906250E-01  2.070312E+01  0.000000E+00
  3.906250E-01  2.109375E+01  0.000000E+00
  3.906250E-01  2.148438E+01  0.000000E+00
  3.906250E-01  2.187500E+01  0.000000E+00
  3.906250E-01  2.226562E+01  0.000000E+00
  3.906250E-01  2.265625E+01  0.000000E+00
  3.906250E-01  2.304688E+01  0.000000E+00
  3.906250E-01  2.343750E+01  0.000000E+00
  3.906250E-01  2.382812E+01  0.000000E+00
  3.906250E-01  2.421875E+01  0.000000E+00
  3.906250E-01  2.460938E+01  0.000000E+00
  7.812500E-01  0.000000E+00  0.000000E+00
  7.812500E-01  3.906250E-01  0.000000E+00
  7.812500E-01  7.812500E-01  0.000000E+00
  7.812500E-01  1.171875E+00  0.000000E+00
  7.812500E-01  1.562500E+00  0.000000E+00
  7.812500E-01  1.953125E+00  0.000000E+00
  7.812500E-01  2.343750E+00  0.000000E+00
  7.812500E-01  2.734375E+00  0.000000E+00
  7.812500E-01  3.125000E+00  0.000000E+00
  7.812500E-01  3.515625E+00  0.000000E+00
  7.812500E-01  3.906250E+00  0.000000E+00
  7.812500E-01  4.296875E+00  0.000000E+00
  7.812500E-01  4.687500E+00  0.000000E+00
  7.812500E-01  5.078125E+00  0.000000E+00
  7.812500E-01  5.468750E+00  0.000000E+00
  7.812500E-01  5.859375E+00  0.000000E+00
  7.812500E-01  6.250000E+00  0.000000E+00
  7.812500E-01  6.640625E+00  0.000000E+00
  7.812500E-01  7.031250E+00  0.000000E+00
  7.812500E-01  7.421875E+00  0.000000E+00
  7.812500E-01  7.812500E+00  0.000000E+00
  7.812500E-01  8.203125E+00  0.000000E+00
  7.812500E-01  8.593750E+00  0.000000E+00
  7.812500E-01  8.984375E+00  0.000000E+00
  7.812500E-01  9.375000E+00  0.000000E+00
  7.812500E-01  9.765625E+00  0.000000E+00
  7.812500E-01  1.015625E+01  0.000000E+00
  7.812500E-01  1.054688E+01  0.000000E+00
  7.812500E-01  1.093750E+01  0.000000E+00
  7.812500E-01  1.132812E+01  0.000000E+00
  7.812500E-01  1.171875E+01  0.000000E+00
  7.812500E-01  1.210938E+01  0.000000E+00
  7.812500E-01  1.250000E+01  0.000000E+00
  7.812500E-01  1.289062E+01  0.000000E+00
  7.812500E-01  1.328125E+01  0.000000E+00
  7.812500E-01  1.367188E+01  0.000000E+00
  7.812500E-01  1.406250E+01  0.000000E+00
  7.812500E-01  1.445312E+01  0.000000E+00
  7.812500E-01  1.484375E+01  0.000000E+00
  7.812500E-01  1.523438E+01  0.000000E+00
  7.812500E-01  1.562500E+01  0.000000E+00
  7.812500E-01  1.601562E+01  0.000000E+00
  7.812500E-01  1.640625E+01  0.000000E+00
  7.812500E-01  1.679688E+01  0.000000E+00
  7.812500E-01  1.718750E+01  0.000000E+00
  7.812500E-01  1.757812E+01  0.000000E+00
  7.812500E-01  1.796875E+01  0.000000E+00
  7.812500E-01  1.835938E+01  0.000000E+00
  7.812500E-01  1.875000E+01  0.000000E+00
  7.812500E-01  1.914062E+01  0.000000E+00
  7.812500E-01  1.953125E+01  0.000000E+00
  7.812500E-01  1.992188E+01  0.000000E+00
  7.812500E-01  2.031250E+01  0.000000E+00
  7.812500E-01  2.070312E+01  0.000000E+00
  7.812500E-01  2.109375E+01  0.000000E+00
  7.812500E-01  2.148438E+01  0.000000E+00
  7.812500E-01  2.187500E+01  0.000000E+00
  7.812500E-01  2.226562E+01  0.000000E+00
  7.812500E-01  2.265625E+01  0.000000E+00
  7.812500E-01  2.304688E+01  0.000000E+00
  7.812500E-01  2.343750E+01  0.000000E+00
  7.812500E-01  2.382812E+01  0.000000E+00
  7.812500E-01  2.421875E+01  0.000000E+00
  7.812500E-01  2.460938E+01  0.000000E+00
  1.171875E+00  0.000000E+00  0.000000E+00
  1.171875E+00  3.906250E-01  0.000000E+00
  1.171875E+00  7.812500E-01  0.000000E+00
  1.171875E+00  1.171875E+00  0.000000E+00
  1.171875E+00  1.562500E+00  0.000000E+00
  1.171875E+00  1.953125E+00  0.000000E+00
  1.171875E+00  2.343750E+00  0.000000E+00
  1.171875E+00  2.734375E+00  0.000000E+00
  1.171875E+00  3.125000E+00  0.000000E+00
  1.171875E+00  3.515625E+00  0.000000E+00
  1.171875E+00  3.906250E+00  0.000000E+00
  1.171875E+00  4.296875E+00  0.000000E+00
  1.171875E+00  4.687500E+00  0.000000E+00
  1.171875E+00  5.078125E+00  0.000000E+00
  1.171875E+00  5.468750E+00  0.000000E+00
  1.171875E+00  5.859375E+00  0.000000E+00
  1.171875E+00  6.250000E+00  0.000000E+00
  1.171875E+00  6.640625E+00  0.000000E+00
  1.171875E+00  7.031250E+00  0.000000E+00
  1.171875E+00  7.421875E+00  0.000000E+00
  1.171875E+00  7.812500E+00  0.000000E+00
  1.171875E+00  8.203125E+00  0.000000E+00
  1.171875E+00  8.593750E+00  0.000000E+00
  1.171875E+00  8.984375E+00  0.000000E+00
  1.171875E+00  9.375000E+00  0.000000E+00
  1.171875E+00  9.765625E+00  0.000000E+00
  1.171875E+00  1.015625E+01  0.000000E+00
  1.171875E+00  1.054688E+01  0.000000E+00
  1.171875E+00  1.093750E+01  0.000000E+00
  1.171875E+00  1.132812E+01  0.000000E+00
  1.171875E+00  1.171875E+01  0.000000E+00
  1.171875E+00  1.210938E+01  0.000000E+00
  1.171875E+00  1.250000E+01  0.000000E+00
  1.171875E+00  1.289062E+01  0.000000E+00
  1.171875E+00  1.328125E+01  0.000000E+00
  1.171875E+00  1.367188E+01  0.000000E+00
  1.171875E+00  1.406250E+01  0.000000E+00
  1.171875E+00  1.445312E+01  0.000000E+00
[...]
POINT_DATA   4096
SCALARS CON  float  1
LOOKUP_TABLE default
  4.695289E-01
  4.684180E-01
  4.707398E-01
  4.693090E-01
  4.710608E-01
  4.690389E-01
  4.703722E-01
  4.681927E-01
  4.696035E-01
  4.676425E-01
  4.693156E-01
  4.676081E-01
  4.695238E-01
  4.680660E-01
  4.702345E-01
  4.689809E-01
  4.712157E-01
  4.698037E-01
  4.716193E-01
  4.695735E-01
  4.706677E-01
  4.679836E-01
  4.686801E-01
  4.659308E-01
  4.668908E-01
  4.646394E-01
  4.661860E-01
  4.644670E-01
  4.664009E-01
  4.649088E-01
  4.669571E-01
  4.655387E-01
  4.676679E-01
  4.663316E-01
  4.684865E-01
  4.670425E-01
  4.689082E-01
  4.670108E-01
  4.683506E-01
  4.659976E-01
  4.670990E-01
  4.648258E-01
  4.663431E-01
  4.647441E-01
  4.670356E-01
  4.661112E-01
  4.687935E-01
  4.678668E-01
  4.701628E-01
  4.686026E-01
  4.702441E-01
  4.682440E-01
  4.698108E-01
  4.680985E-01
  4.701518E-01
  4.688650E-01
  4.710414E-01
  4.694660E-01
  4.710231E-01
  4.687401E-01
  4.698004E-01
  4.674521E-01
  4.689206E-01
  4.672987E-01
  4.713023E-01
  4.705734E-01
  4.717347E-01
  4.703744E-01
  4.708174E-01
  4.689085E-01
  4.691553E-01
  4.674448E-01
  4.681844E-01
  4.670775E-01
  4.683521E-01
  4.676092E-01
  4.690746E-01
  4.684174E-01
  4.699394E-01
  4.693359E-01
  4.708663E-01
  4.701411E-01
  4.713480E-01
  4.700935E-01
  4.706511E-01
  4.687823E-01
  4.689304E-01
  4.669790E-01
  4.674004E-01
  4.660032E-01
  4.671063E-01
  4.663357E-01
  4.678563E-01
  4.672129E-01
  4.685807E-01
  4.675952E-01
  4.685661E-01
  4.672568E-01
  4.680542E-01
  4.667265E-01
  4.676015E-01
  4.663610E-01
  4.672656E-01
  4.659855E-01
  4.668331E-01
  4.655686E-01
  4.665844E-01
  4.656634E-01
  4.671390E-01
  4.666673E-01
  4.684371E-01
  4.680057E-01
  4.695596E-01
  4.687592E-01
  4.699597E-01
  4.689820E-01
  4.702560E-01
  4.695515E-01
  4.711392E-01
  4.705931E-01
  4.720466E-01
  4.710662E-01
  4.719217E-01
  4.704047E-01
  4.709998E-01
  4.696043E-01
  4.706460E-01
  4.698226E-01
  4.681134E-01
  4.686081E-01
  4.695684E-01
  4.697375E-01
  4.700362E-01
  4.694874E-01
  4.692656E-01
  4.685268E-01
  4.684317E-01
  4.680180E-01
  4.683028E-01
  4.682248E-01
  4.687733E-01
  4.689082E-01
  4.696404E-01
  4.699099E-01
  4.706580E-01
  4.707366E-01
  4.710331E-01
  4.704247E-01
  4.699163E-01
  4.685668E-01
  4.675680E-01
  4.661059E-01
  4.653960E-01
  4.645390E-01
  4.645895E-01
  4.644708E-01
  4.651021E-01
  4.653478E-01
  4.661439E-01
  4.664142E-01
  4.671515E-01
  4.673009E-01
  4.678362E-01
  4.676671E-01
  4.677544E-01
  4.670496E-01
  4.666167E-01
  4.655476E-01
  4.650378E-01
  4.642532E-01
  4.643710E-01
  4.644401E-01
  4.654463E-01
  4.662216E-01
  4.675740E-01
  4.682554E-01
  4.691258E-01
  4.691157E-01
  4.693360E-01
  4.689508E-01
  4.691935E-01
  4.691806E-01
  4.699364E-01
  4.702880E-01
  4.710143E-01
  4.708574E-01
  4.707239E-01
  4.696550E-01
  4.689074E-01
  4.677735E-01
  4.675517E-01
  4.673457E-01
  4.695007E-01
  4.703859E-01
  4.701284E-01
  4.703851E-01
  4.693594E-01
  4.689935E-01
  4.677118E-01
  4.675302E-01
  4.667837E-01
  4.672894E-01
  4.671697E-01
  4.681041E-01
  4.681917E-01
  4.691811E-01
  4.692669E-01
  4.702489E-01
  4.702950E-01
  4.711195E-01
  4.708047E-01
  4.710441E-01
  4.699992E-01
  4.695286E-01
  4.679882E-01
  4.673882E-01
  4.661356E-01
  4.661719E-01
  4.657382E-01
  4.665672E-01
  4.667124E-01
  4.677925E-01
  4.678471E-01
  4.685738E-01
  4.681493E-01
  4.684152E-01
  4.676521E-01
  4.677377E-01
  4.669238E-01
  4.670255E-01
  4.662394E-01
  4.663674E-01
  4.656417E-01
  4.659249E-01
  4.654931E-01
  4.661971E-01
  4.662321E-01
  4.673209E-01
  4.675361E-01
  4.685414E-01
  4.684500E-01
  4.690595E-01
  4.686592E-01
  4.691880E-01
  4.689734E-01
  4.698635E-01
  4.699976E-01
  4.710184E-01
  4.709378E-01
  4.714148E-01
  4.706260E-01
  4.704824E-01
  4.693950E-01
  4.693906E-01
  4.688224E-01
  4.695032E-01
  4.661611E-01
  4.680528E-01
  4.677455E-01
  4.693558E-01
  4.684067E-01
  4.692937E-01
  4.678052E-01
  4.684874E-01
  4.671283E-01
  4.681581E-01
  4.672109E-01
  4.686015E-01
  4.679244E-01
  4.695139E-01
  4.689939E-01
  4.706897E-01
  4.701606E-01
  4.716395E-01
  4.706208E-01
  4.713533E-01
  4.694496E-01
  4.693538E-01
  4.668880E-01
  4.666466E-01
  4.644892E-01
  4.649242E-01
  4.636365E-01
  4.649351E-01
  4.643461E-01
  4.661000E-01
  4.657261E-01
  4.675076E-01
  4.670313E-01
  4.686094E-01
  4.678242E-01
  4.689725E-01
  4.676466E-01
  4.682053E-01
  4.663556E-01
  4.665954E-01
  4.647470E-01
  4.653530E-01
  4.641832E-01
  4.656346E-01
  4.652740E-01
  4.672944E-01
  4.671187E-01
  4.689046E-01
  4.681672E-01
  4.692617E-01
  4.679454E-01
  4.687760E-01
  4.675934E-01
  4.688767E-01
  4.682453E-01
  4.698972E-01
  4.692264E-01
  4.703648E-01
  4.688419E-01
  4.690854E-01
  4.669663E-01
  4.671582E-01
  4.655771E-01
  4.667170E-01
  4.676564E-01
  4.695365E-01
  4.683402E-01
  4.697059E-01
  4.678501E-01
  4.686629E-01
  4.665657E-01
  4.675278E-01
  4.659017E-01
  4.674825E-01
  4.664289E-01
  4.684061E-01
  4.675495E-01
  4.695886E-01
  4.687471E-01
  4.707984E-01
  4.699302E-01
  4.718200E-01
  4.705615E-01
  4.718107E-01
  4.697504E-01
  4.702202E-01
  4.676192E-01
  4.679538E-01
  4.656774E-01
  4.667177E-01
  4.653440E-01
  4.672563E-01
  4.665229E-01
  4.687242E-01
  4.679144E-01
  4.697553E-01
  4.684395E-01
  4.697745E-01
  4.680606E-01
  4.691502E-01
  4.673290E-01
  4.684016E-01
  4.666092E-01
  4.677424E-01
  4.660623E-01
  4.673929E-01
  4.660083E-01
  4.676980E-01
  4.666523E-01
  4.685547E-01
  4.675134E-01
  4.691987E-01
  4.677928E-01
  4.691069E-01
  4.674783E-01
  4.688208E-01
  4.674719E-01
  4.692340E-01
  4.682607E-01
  4.701728E-01
  4.690227E-01
  4.704595E-01
  4.686900E-01
  4.695868E-01
  4.675612E-01
  4.685870E-01
  4.670289E-01
  4.686795E-01
  4.646333E-01
  4.670250E-01
  4.662058E-01
  4.685119E-01
  4.672497E-01
  4.689706E-01
  4.672060E-01
  4.686539E-01
  4.668750E-01
  4.684996E-01
  4.669826E-01
  4.688723E-01
  4.675952E-01
  4.697106E-01
  4.686533E-01
  4.709471E-01
  4.699381E-01
  4.720410E-01
  4.705313E-01
  4.718471E-01
  4.694004E-01
  4.698472E-01
  4.668279E-01
  4.671562E-01
  4.645020E-01
  4.655734E-01
  4.638432E-01
  4.658045E-01
  4.647682E-01
  4.671574E-01
  4.663000E-01
  4.686835E-01
  4.676977E-01
  4.698563E-01
  4.685392E-01
  4.702432E-01
  4.683633E-01
  4.694683E-01
  4.670767E-01
  4.678959E-01
  4.655462E-01
  4.667551E-01
  4.650635E-01
  4.670367E-01
  4.660161E-01
  4.683893E-01
  4.673961E-01
  4.694312E-01
  4.678508E-01
  4.692435E-01
  4.671779E-01
  4.684027E-01
  4.665352E-01
  4.682356E-01
  4.669184E-01
  4.689975E-01
  4.676922E-01
  4.693569E-01
  4.673227E-01
  4.681950E-01
  4.656033E-01
  4.663810E-01
  4.642221E-01
  4.658318E-01
  4.665571E-01
  4.684646E-01
  4.671759E-01
  4.688341E-01
  4.671544E-01
  4.684461E-01
  4.665717E-01
  4.679092E-01
  4.662902E-01
  4.679867E-01
  4.667088E-01
  4.686525E-01
  4.675252E-01
  4.695756E-01
  4.685660E-01
  4.707471E-01
  4.698090E-01
  4.718852E-01
  4.705694E-01
  4.719871E-01
  4.698445E-01
  4.704748E-01
  4.678147E-01
  4.683633E-01
  4.660947E-01
  4.674031E-01
  4.660551E-01
  4.682063E-01
  4.674285E-01
  4.697786E-01
  4.688396E-01
  4.707690E-01
  4.692948E-01
  4.707137E-01
  4.688490E-01
  4.700324E-01
  4.680705E-01
  4.692523E-01
  4.673469E-01
  4.686292E-01
  4.668767E-01
  4.683765E-01
  4.668968E-01
  4.686789E-01
  4.674152E-01
  4.692696E-01
  4.678927E-01
  4.694708E-01
  4.677434E-01
  4.690249E-01
  4.671734E-01
  4.685627E-01
  4.670216E-01
  4.688111E-01
  4.676041E-01
  4.695219E-01
  4.681696E-01
  4.697016E-01
  4.678472E-01
  4.689325E-01
  4.668426E-01
  4.679861E-01
  4.662265E-01
  4.678534E-01
  4.639761E-01
  4.660438E-01
  4.654496E-01
  4.677279E-01
  4.669891E-01
  4.688875E-01
  4.676916E-01
  4.691889E-01
  4.677194E-01
  4.690820E-01
  4.675979E-01
  4.690492E-01
  4.677547E-01
  4.694932E-01
  4.685495E-01
  4.706159E-01
  4.698462E-01
  4.718012E-01
  4.705643E-01
  4.717368E-01
  4.695634E-01
  4.698849E-01
  4.671831E-01
  4.674484E-01
  4.651705E-01
  4.662072E-01
  4.648307E-01
  4.666794E-01
  4.658777E-01
  4.680226E-01
  4.672868E-01
  4.693537E-01
  4.684639E-01
  4.703177E-01
  4.691288E-01
  4.705659E-01
  4.688513E-01
  4.697279E-01
  4.675465E-01
  4.681878E-01
  4.660940E-01
  4.671477E-01
  4.656938E-01
  4.674462E-01
  4.665627E-01
  4.686094E-01
  4.676798E-01
  4.693758E-01
  4.679138E-01
  4.690685E-01
  4.672273E-01
  4.682810E-01
  4.666394E-01
  4.681092E-01
  4.669313E-01
  4.687131E-01
  4.675374E-01
  4.689592E-01
  4.671443E-01
  4.678469E-01
  4.654815E-01
  4.660101E-01
  4.639358E-01
  4.651551E-01
  4.662946E-01
  4.676961E-01
  4.667968E-01
  4.682205E-01
  4.672075E-01
  4.684557E-01
  4.672857E-01
  4.684486E-01
  4.672739E-01
  4.684861E-01
  4.673814E-01
  4.686742E-01
  4.676836E-01
  4.691600E-01
  4.684319E-01
  4.701985E-01
  4.696748E-01
  4.714231E-01
  4.705650E-01
  4.716732E-01
  4.700040E-01
  4.703535E-01
  4.682112E-01
  4.685273E-01
  4.668074E-01
  4.678754E-01
  4.670165E-01
  4.688191E-01
  4.683930E-01
  4.702575E-01
  4.695630E-01
  4.709473E-01
  4.697081E-01
  4.706108E-01
  4.690307E-01
  4.697531E-01
  4.681300E-01
  4.689061E-01
  4.673987E-01
  4.683358E-01
  4.670315E-01
  4.682088E-01
  4.671582E-01
  4.685552E-01
  4.676317E-01
  4.690182E-01
  4.679407E-01
  4.690758E-01
  4.677381E-01
  4.687044E-01
  4.673617E-01
  4.685004E-01
  4.674522E-01
  4.689013E-01
  4.680603E-01
  4.695252E-01
  4.684832E-01
  4.695767E-01
  4.680955E-01
  4.688056E-01
  4.671031E-01
  4.678113E-01
  4.663196E-01
  4.673855E-01
  4.640523E-01
  4.655843E-01
  4.653987E-01
  4.673298E-01
  4.672062E-01
  4.689052E-01
  4.683538E-01
  4.695444E-01
  4.685065E-01
  4.693111E-01
  4.680448E-01
  4.688186E-01
  4.677364E-01
  4.688874E-01
  4.682982E-01
  4.699235E-01
  4.696247E-01
  4.712125E-01
  4.704845E-01
  4.713093E-01
  4.696622E-01
  4.696586E-01
  4.675078E-01
  4.674624E-01
  4.657243E-01
  4.664029E-01
  4.654812E-01
  4.668600E-01
  4.663950E-01
  4.679688E-01
  4.675045E-01
  4.689791E-01
  4.683785E-01
  4.696833E-01
  4.688381E-01
  4.697824E-01
  4.684682E-01
  4.689129E-01
  4.671988E-01
  4.674748E-01
  4.658991E-01
  4.666034E-01
  4.656358E-01
  4.669630E-01
  4.664685E-01
  4.680083E-01
  4.674394E-01
  4.686755E-01
  4.676915E-01
  4.685403E-01
  4.673163E-01
  4.681387E-01
  4.670960E-01
  4.682289E-01
  4.674950E-01
  4.687914E-01
  4.679677E-01
  4.688913E-01
  4.674821E-01
  4.677642E-01
  4.658544E-01
  4.659490E-01
  4.642523E-01
  4.649311E-01
  4.666830E-01
  4.676017E-01
  4.670421E-01
  4.680440E-01
  4.674714E-01
  4.683849E-01
  4.676806E-01
  4.684510E-01
  4.676168E-01
  4.682889E-01
  4.674086E-01
  4.681161E-01
  4.673858E-01
  4.683742E-01
  4.680286E-01
  4.694186E-01
  4.693562E-01
  4.707718E-01
  4.703953E-01
  4.711820E-01
  4.700045E-01
  4.700396E-01
  4.683837E-01
  4.683569E-01
  4.670663E-01
  4.677091E-01
  4.671846E-01
  4.684723E-01
  4.683136E-01
  4.696306E-01
  4.692072E-01
  4.700766E-01
  4.691563E-01
  4.695930E-01
  4.683742E-01
  4.686683E-01
  4.674481E-01
  4.678496E-01
  4.668119E-01
  4.674428E-01
  4.666559E-01
  4.675302E-01
  4.669424E-01
  4.679317E-01
  4.673459E-01
  4.682229E-01
  4.674472E-01
  4.681263E-01
  4.672259E-01
  4.679152E-01
  4.671752E-01
  4.681327E-01
  4.676803E-01
  4.688419E-01
  4.684297E-01
  4.694392E-01
  4.687154E-01
  4.693342E-01
  4.682391E-01
  4.685910E-01
  4.673834E-01
  4.677842E-01
  4.667581E-01
  4.674225E-01
  4.647610E-01
  4.658564E-01
  4.659304E-01
  4.673415E-01
  4.674612E-01
  4.686645E-01
  4.683857E-01
  4.690895E-01
  4.683097E-01
  4.686072E-01
  4.675992E-01
  4.679043E-01
  4.671561E-01
  4.679328E-01
  4.677642E-01
  4.690744E-01
  4.692234E-01
  4.705011E-01
  4.702197E-01
  4.707375E-01
  4.695428E-01
  4.692280E-01
  4.674991E-01
  4.670768E-01
  4.656647E-01
  4.658590E-01
  4.651708E-01
  4.660117E-01
  4.657787E-01
  4.668624E-01
  4.667096E-01
  4.677803E-01
  4.675612E-01
  4.685029E-01
  4.680527E-01
  4.686360E-01
  4.677284E-01
  4.678487E-01
  4.666026E-01
  4.666224E-01
  4.655589E-01
  4.659964E-01
  4.654605E-01
  4.663804E-01
  4.661540E-01
  4.671519E-01
  4.667946E-01
  4.675376E-01
  4.669114E-01
  4.674686E-01
  4.667962E-01
  4.674507E-01
  4.669748E-01
  4.678464E-01
  4.675160E-01
  4.683817E-01
  4.678514E-01
  4.683363E-01
  4.673182E-01
  4.673284E-01
  4.659830E-01
  4.659204E-01
  4.648012E-01
  4.652295E-01
  4.677276E-01
  4.681797E-01
  4.678497E-01
  4.681745E-01
  4.677148E-01
  4.679259E-01
  4.673764E-01
  4.675244E-01
  4.669414E-01
  4.670946E-01
  4.665743E-01
  4.668739E-01
  4.666060E-01
  4.672640E-01
  4.674200E-01
  4.684783E-01
  4.688895E-01
  4.699417E-01
  4.700236E-01
  4.704544E-01
  4.697531E-01
  4.694354E-01
  4.682195E-01
  4.677555E-01
  4.667852E-01
  4.668680E-01
  4.665768E-01
  4.672833E-01
  4.674118E-01
  4.682607E-01
  4.682628E-01
  4.687869E-01
  4.683682E-01
  4.684787E-01
  4.677356E-01
  4.676621E-01
  4.668943E-01
  4.669450E-01
  4.664157E-01
  4.667662E-01
  4.665326E-01
  4.671073E-01
  4.669712E-01
  4.674890E-01
  4.671548E-01
  4.673920E-01
  4.667875E-01
  4.668653E-01
  4.662866E-01
  4.665928E-01
  4.663932E-01
  4.671200E-01
  4.672511E-01
  4.681125E-01
  4.681392E-01
  4.686939E-01
  4.683136E-01
  4.684888E-01
  4.678634E-01
  4.679781E-01
  4.674599E-01
  4.677810E-01
  4.674815E-01
  4.679623E-01
  4.661220E-01
  4.666263E-01
  4.669697E-01
  4.675001E-01
  4.677117E-01
  4.679838E-01
  4.678582E-01
  4.677718E-01
  4.673299E-01
  4.670349E-01
  4.665515E-01
  4.664200E-01
  4.663040E-01
  4.666911E-01
  4.671407E-01
  4.680019E-01
  4.686944E-01
  4.694677E-01
  4.697178E-01
  4.697638E-01
  4.691542E-01
  4.684044E-01
  4.672464E-01
  4.663110E-01
  4.653444E-01
  4.648938E-01
  4.645618E-01
  4.647471E-01
  4.649467E-01
  4.655158E-01
  4.659562E-01
  4.666426E-01
  4.670809E-01
  4.676278E-01
  4.677706E-01
  4.678808E-01
  4.675165E-01
  4.671685E-01
  4.665227E-01
  4.661527E-01
  4.657419E-01
  4.657714E-01
  4.657775E-01
  4.660991E-01
  4.661911E-01
  4.663988E-01
  4.662599E-01
  4.662388E-01
  4.659782E-01
  4.659955E-01
  4.659220E-01
  4.662115E-01
  4.664064E-01
  4.668758E-01
  4.671043E-01
  4.674422E-01
  4.673975E-01
  4.673810E-01
  4.669845E-01
  4.667069E-01
  4.662096E-01
  4.660217E-01
  4.657857E-01
  4.659678E-01
  4.693158E-01
  4.689996E-01
  4.690210E-01
  4.682755E-01
  4.679810E-01
  4.670745E-01
  4.667726E-01
  4.659822E-01
  4.658801E-01
  4.653393E-01
  4.655184E-01
  4.652874E-01
  4.658076E-01
  4.659425E-01
  4.668231E-01
  4.672537E-01
  4.682866E-01
  4.686524E-01
  4.693671E-01
  4.691891E-01
  4.692316E-01
  4.683995E-01
  4.679606E-01
  4.669337E-01
  4.666251E-01
  4.660070E-01
  4.662712E-01
  4.662445E-01
  4.669828E-01
  4.672182E-01
  4.679687E-01
  4.679856E-01
  4.683533E-01
  4.679195E-01
  4.678752E-01
  4.671634E-01
  4.670388E-01
  4.664600E-01
  4.666425E-01
  4.664567E-01
  4.670012E-01
  4.670319E-01
  4.675685E-01
  4.673523E-01
  4.674633E-01
  4.667666E-01
  4.664962E-01
  4.656527E-01
  4.655410E-01
  4.651388E-01
  4.656361E-01
  4.658386E-01
  4.667632E-01
  4.671012E-01
  4.678541E-01
  4.678009E-01
  4.680998E-01
  4.676973E-01
  4.678677E-01
  4.675816E-01
  4.680418E-01
  4.680846E-01
  4.687700E-01
  4.688351E-01
  4.677709E-01
  4.673636E-01
  4.681213E-01
  4.674937E-01
  4.679764E-01
  4.670718E-01
  4.673163E-01
  4.662401E-01
  4.664014E-01
  4.653522E-01
  4.656711E-01
  4.649184E-01
  4.656548E-01
  4.653870E-01
  4.665897E-01
  4.666684E-01
  4.680069E-01
  4.679564E-01
  4.689018E-01
  4.682569E-01
  4.685195E-01
  4.672411E-01
  4.670487E-01
  4.655805E-01
  4.654854E-01
  4.643586E-01
  4.647612E-01
  4.641872E-01
  4.651126E-01
  4.649757E-01
  4.662202E-01
  4.662592E-01
  4.675088E-01
  4.673586E-01
  4.682284E-01
  4.675624E-01
  4.678907E-01
  4.667979E-01
  4.669339E-01
  4.659302E-01
  4.663834E-01
  4.657872E-01
  4.665696E-01
  4.660948E-01
  4.667530E-01
  4.659749E-01
  4.662898E-01
  4.652795E-01
  4.655765E-01
  4.647829E-01
  4.654683E-01
  4.651200E-01
  4.661845E-01
  4.660563E-01
  4.671413E-01
  4.668484E-01
  4.676432E-01
  4.670198E-01
  4.675330E-01
  4.667480E-01
  4.672536E-01
  4.666024E-01
  4.673271E-01
  4.668988E-01
  4.708062E-01
  4.695652E-01
  4.699776E-01
  4.681700E-01
  4.682056E-01
  4.662635E-01
  4.663979E-01
  4.647342E-01
  4.652537E-01
  4.640138E-01
  4.649482E-01
  4.640899E-01
  4.653653E-01
  4.648051E-01
  4.663268E-01
  4.659389E-01
  4.675259E-01
  4.670647E-01
  4.684253E-01
  4.676023E-01
  4.685221E-01
  4.672652E-01
  4.678529E-01
  4.664432E-01
  4.670939E-01
  4.659479E-01
  4.669996E-01
  4.662961E-01
  4.677264E-01
  4.672458E-01
  4.686849E-01
  4.679879E-01
  4.690278E-01
  4.678393E-01
  4.684164E-01
  4.669169E-01
  4.674251E-01
  4.661260E-01
  4.670532E-01
  4.662706E-01
  4.676518E-01
  4.671086E-01
  4.684197E-01
  4.674941E-01
  4.682074E-01
  4.666414E-01
  4.668696E-01
  4.651345E-01
  4.655801E-01
  4.644039E-01
  4.656013E-01
  4.651654E-01
  4.668977E-01
  4.666707E-01
  4.682759E-01
  4.676841E-01
  4.688538E-01
  4.679284E-01
  4.689810E-01
  4.681724E-01
  4.694936E-01
  4.689589E-01
  4.704063E-01
  4.697480E-01
  4.688784E-01
  4.677269E-01
  4.687240E-01
  4.673525E-01
  4.681158E-01
  4.665447E-01
  4.671722E-01
  4.655401E-01
  4.661845E-01
  4.646528E-01
  4.654899E-01
  4.642458E-01
  4.654477E-01
  4.646003E-01
  4.661635E-01
  4.655693E-01
  4.672212E-01
  4.665284E-01
  4.679114E-01
  4.668325E-01
  4.677887E-01
  4.663252E-01
  4.670111E-01
  4.654368E-01
  4.661811E-01
  4.648101E-01
  4.658554E-01
  4.648294E-01
  4.662172E-01
  4.654957E-01
  4.671186E-01
  4.665259E-01
  4.681297E-01
  4.673391E-01
  4.685718E-01
  4.673007E-01
  4.680620E-01
  4.664685E-01
  4.671626E-01
  4.657788E-01
  4.668772E-01
  4.659312E-01
  4.673247E-01
  4.664124E-01
  4.675660E-01
  4.662379E-01
  4.669645E-01
  4.653628E-01
  4.660725E-01
  4.647211E-01
  4.658742E-01
  4.650373E-01
  4.666505E-01
  4.661253E-01
  4.678556E-01
  4.672547E-01
  4.687571E-01
  4.678427E-01
  4.690249E-01
  4.678565E-01
  4.688988E-01
  4.677128E-01
  4.688240E-01
  4.677273E-01
  4.713544E-01
  4.697427E-01
  4.701183E-01
  4.680780E-01
  4.682203E-01
  4.661711E-01
  4.665022E-01
  4.647751E-01
  4.654863E-01
  4.641351E-01
  4.651821E-01
  4.641164E-01
  4.654045E-01
  4.645442E-01
  4.660034E-01
  4.652711E-01
  4.667984E-01
  4.660577E-01
  4.674944E-01
  4.665927E-01
  4.678287E-01
  4.667315E-01
  4.678251E-01
  4.666759E-01
  4.678230E-01
  4.668206E-01
  4.681702E-01
  4.673700E-01
  4.688587E-01
  4.680783E-01
  4.694317E-01
  4.683582E-01
  4.692995E-01
  4.677753E-01
  4.683358E-01
  4.666105E-01
  4.672273E-01
  4.658304E-01
  4.669836E-01
  4.661973E-01
  4.678660E-01
  4.673444E-01
  4.689356E-01
  4.680005E-01
  4.689502E-01
  4.673267E-01
  4.677412E-01
  4.658940E-01
  4.664646E-01
  4.651119E-01
  4.663801E-01
  4.657448E-01
  4.675764E-01
  4.672375E-01
  4.690758E-01
  4.685185E-01
  4.700344E-01
  4.691808E-01
  4.705186E-01
  4.696284E-01
  4.710221E-01
  4.701826E-01
  4.715166E-01
  4.704392E-01
  4.687815E-01
  4.677494E-01
  4.683635E-01
  4.673643E-01
  4.679752E-01
  4.669430E-01
  4.674939E-01
  4.663781E-01
  4.668369E-01
  4.656539E-01
  4.661158E-01
  4.650439E-01
  4.657337E-01
  4.649736E-01
  4.659913E-01
  4.654962E-01
  4.666526E-01
  4.661444E-01
  4.671543E-01
  4.664179E-01
  4.671855E-01
  4.662554E-01
  4.669188E-01
  4.659854E-01
  4.667285E-01
  4.659202E-01
  4.667937E-01
  4.660948E-01
  4.670518E-01
  4.664212E-01
  4.674404E-01
  4.668556E-01
  4.678692E-01
  4.671834E-01
  4.679785E-01
  4.669856E-01
  4.674711E-01
  4.662826E-01
  4.667830E-01
  4.658457E-01
  4.667651E-01
  4.662723E-01
  4.675016E-01
  4.670722E-01
  4.681006E-01
  4.672859E-01
  4.678853E-01
  4.667414E-01
  4.672078E-01