# vtk DataFile Version 2.0
title
ASCII
DATASET STRUCTURED_GRID
DIMENSIONS   64   64    1
POINTS   4096  float
  0.000000E+00  0.000000E+00  0.000000E+00
  0.000000E+00  3.906250E-01  0.000000E+00
  0.000000E+00  7.812500E-01  0.000000E+00
  0.000000E+00  1.171875E+00  0.000000E+00
  0.000000E+00  1.562500E+00  0.000000E+00
  0.000000E+00  1.953125E+00  0.000000E+00
  0.000000E+00  2.343750E+00  0.000000E+00
  0.000000E+00  2.734375E+00  0.000000E+00
  0.000000E+00  3.125000E+00  0.000000E+00
  0.000000E+00  3.515625E+00  0.000000E+00
  0.000000E+00  3.906250E+00  0.000000E+00
  0.000000E+00  4.296875E+00  0.000000E+00
  0.000000E+00  4.687500E+00  0.000000E+00
  0.000000E+00  5.078125E+00  0.000000E+00
  0.000000E+00  5.468750E+00  0.000000E+00
  0.000000E+00  5.859375E+00  0.000000E+00
  0.000000E+00  6.250000E+00  0.000000E+00
  0.000000E+00  6.640625E+00  0.000000E+00
  0.000000E+00  7.031250E+00  0.000000E+00
  0.000000E+00  7.421875E+00  0.000000E+00
  0.000000E+00  7.812500E+00  0.000000E+00
  0.000000E+00  8.203125E+00  0.000000E+00
  0.000000E+00  8.593750E+00  0.000000E+00
  0.000000E+00  8.984375E+00  0.000000E+00
  0.000000E+00  9.375000E+00  0.000000E+00
  0.000000E+00  9.765625E+00  0.000000E+00
  0.000000E+00  1.015625E+01  0.000000E+00
  0.000000E+00  1.054688E+01  0.000000E+00
  0.000000E+00  1.093750E+01  0.000000E+00
  0.000000E+00  1.132812E+01  0.000000E+00
  0.000000E+00  1.171875E+01  0.000000E+00
  0.000000E+00  1.210938E+01  0.000000E+00
  0.000000E+00  1.250000E+01  0.000000E+00
  0.000000E+00  1.289062E+01  0.000000E+00
  0.000000E+00  1.328125E+01  0.000000E+00
  0.000000E+00  1.367188E+01  0.000000E+00
  0.000000E+00  1.406250E+01  0.000000E+00
  0.000000E+00  1.445312E+01  0.000000E+00
  0.000000E+00  1.484375E+01  0.000000E+00
  0.000000E+00  1.523438E+01  0.000000E+00
  0.000000E+00  1.562500E+01  0.000000E+00
  0.000000E+00  1.601562E+01  0.000000E+00
  0.000000E+00  1.640625E+01  0.000000E+00
  0.000000E+00  1.679688E+01  0.000000E+00
  0.000000E+00  1.718750E+01  0.000000E+00
  0.000000E+00  1.757812E+01  0.000000E+00
  0.000000E+00  1.796875E+01  0.000000E+00
  0.000000E+00  1.835938E+01  0.000000E+00
  0.000000E+00  1.875000E+01  0.000000E+00
  0.000000E+00  1.914062E+01  0.000000E+00
  0.000000E+00  1.953125E+01  0.000000E+00
  0.000000E+00  1.992188E+01  0.000000E+00
  0.000000E+00  2.031250E+01  0.000000E+00
  0.000000E+00  2.070312E+01  0.000000E+00
  0.000000E+00  2.109375E+01  0.000000E+00
  0.000000E+00  2.148438E+01  0.000000E+00
  0.000000E+00  2.187500E+01  0.000000E+00
  0.000000E+00  2.226562E+01  0.000000E+00
  0.000000E+00  2.265625E+01  0.000000E+00
  0.000000E+00  2.304688E+01  0.000000E+00
  0.000000E+00  2.343750E+01  0.000000E+00
  0.000000E+00  2.382812E+01  0.000000E+00
  0.000000E+00  2.421875E+01  0.000000E+00
  0.000000E+00  2.460938E+01  0.000000E+00
  3.906250E-01  0.000000E+00  0.000000E+00
  3.906250E-01  3.906250E-01  0.000000E+00
  3.906250E-01  7.812500E-01  0.000000E+00
  3.906250E-01  1.171875E+00  0.000000E+00
  3.906250E-01  1.562500E+00  0.000000E+00
  3.906250E-01  1.953125E+00  0.000000E+00
  3.906250E-01  2.343750E+00  0.000000E+00
  3.906250E-01  2.734375E+00  0.000000E+00
  3.906250E-01  3.125000E+00  0.000000E+00
  3.906250E-01  3.515625E+00  0.000000E+00
  3.906250E-01  3.906250E+00  0.000000E+00
  3.906250E-01  4.296875E+00  0.000000E+00
  3.906250E-01  4.687500E+00  0.000000E+00
  3.906250E-01  5.078125E+00  0.000000E+00
  3.906250E-01  5.468750E+00  0.000000E+00
  3.906250E-01  5.859375E+00  0.000000E+00
  3.906250E-01  6.250000E+00  0.000000E+00
  3.906250E-01  6.640625E+00  0.000000E+00
  3.906250E-01  7.031250E+00  0.000000E+00
  3.906250E-01  7.421875E+00  0.000000E+00
  3.906250E-01  7.812500E+00  0.000000E+00
  3.906250E-01  8.203125E+00  0.000000E+00
  3.906250E-01  8.593750E+00  0.000000E+00
  3.906250E-01  8.984375E+00  0.000000E+00
  3.906250E-01  9.375000E+00  0.000000E+00
  3.906250E-01  9.765625E+00  0.000000E+00
  3.906250E-01  1.015625E+01  0.000000E+00
  3.906250E-01  1.054688E+01  0.000000E+00
  3.906250E-01  1.093750E+01  0.000000E+00
  3.906250E-01  1.132812E+01  0.000000E+00
  3.906250E-01  1.171875E+01  0.000000E+00
  3.906250E-01  1.210938E+01  0.000000E+00
  3.906250E-01  1.250000E+01  0.000000E+00
  3.906250E-01  1.289062E+01  0.000000E+00
  3.906250E-01  1.328125E+01  0.000000E+00
  3.906250E-01  1.367188E+01  0.000000E+00
  3.906250E-01  1.406250E+01  0.000000E+00
  3.906250E-01  1.445312E+01  0.000000E+00
  3.906250E-01  1.484375E+01  0.000000E+00
  3.906250E-01  1.523438E+01  0.000000E+00
  3.906250E-01  1.562500E+01  0.000000E+00
  3.906250E-01  1.601562E+01  0.000000E+00
  3.906250E-01  1.640625E+01  0.000000E+00
  3.906250E-01  1.679688E+01  0.000000E+00
  3.906250E-01  1.718750E+01  0.000000E+00
  3.906250E-01  1.757812E+01  0.000000E+00
  3.906250E-01  1.796875E+01  0.000000E+00
  3.906250E-01  1.835938E+01  0.000000E+00
  3.906250E-01  1.875000E+01  0.000000E+00
  3.906250E-01  1.914062E+01  0.000000E+00
  3.906250E-01  1.953125E+01  0.000000E+00
  3.906250E-01  1.992188E+01  0.000000E+00
  3.906250E-01  2.031250E+01  0.000000E+00
  3.906250E-01  2.070312E+01  0.000000E+00
  3.906250E-01  2.109375E+01  0.000000E+00
  3.906250E-01  2.148438E+01  0.000000E+00
  3.906250E-01  2.187500E+01  0.000000E+00
  3.906250E-01  2.226562E+01  0.000000E+00
  3.906250E-01  2.265625E+01  0.000000E+00
  3.906250E-01  2.304688E+01  0.000000E+00
  3.906250E-01  2.343750E+01  0.000000E+00
  3.906250E-01  2.382812E+01  0.000000E+00
  3.906250E-01  2.421875E+01  0.000000E+00
  3.906250E-01  2.460938E+01  0.000000E+00
  7.812500E-01  0.000000E+00  0.000000E+00
  7.812500E-01  3.906250E-01  0.000000E+00
  7.812500E-01  7.812500E-01  0.000000E+00
  7.812500E-01  1.171875E+00  0.000000E+00
  7.812500E-01  1.562500E+00  0.000000E+00
  7.812500E-01  1.953125E+00  0.000000E+00
  7.812500E-01  2.343750E+00  0.000000E+00
  7.812500E-01  2.734375E+00  0.000000E+00
  7.812500E-01  3.125000E+00  0.000000E+00
  7.812500E-01  3.515625E+00  0.000000E+00
  7.812500E-01  3.906250E+00  0.000000E+00
  7.812500E-01  4.296875E+00  0.000000E+00
  7.812500E-01  4.687500E+00  0.000000E+00
  7.812500E-01  5.078125E+00  0.000000E+00
  7.812500E-01  5.468750E+00  0.000000E+00
  7.812500E-01  5.859375E+00  0.000000E+00
  7.812500E-01  6.250000E+00  0.000000E+00
  7.812500E-01  6.640625E+00  0.000000E+00
  7.812500E-01  7.031250E+00  0.000000E+00
  7.812500E-01  7.421875E+00  0.000000E+00
  7.812500E-01  7.812500E+00  0.000000E+00
  7.812500E-01  8.203125E+00  0.000000E+00
  7.812500E-01  8.593750E+00  0.000000E+00
  7.812500E-01  8.984375E+00  0.000000E+00
  7.812500E-01  9.375000E+00  0.000000E+00
  7.812500E-01  9.765625E+00  0.000000E+00
  7.812500E-01  1.015625E+01  0.000000E+00
  7.812500E-01  1.054688E+01  0.000000E+00
  7.812500E-01  1.093750E+01  0.000000E+00
  7.812500E-01  1.132812E+01  0.000000E+00
  7.812500E-01  1.171875E+01  0.000000E+00
  7.812500E-01  1.210938E+01  0.000000E+00
  7.812500E-01  1.250000E+01  0.000000E+00
  7.812500E-01  1.289062E+01  0.000000E+00
  7.812500E-01  1.328125E+01  0.000000E+00
  7.812500E-01  1.367188E+01  0.000000E+00
  7.812500E-01  1.406250E+01  0.000000E+00
  7.812500E-01  1.445312E+01  0.000000E+00
  7.812500E-01  1.484375E+01  0.000000E+00
  7.812500E-01  1.523438E+01  0.000000E+00
  7.812500E-01  1.562500E+01  0.000000E+00
  7.812500E-01  1.601562E+01  0.000000E+00
  7.812500E-01  1.640625E+01  0.000000E+00
  7.812500E-01  1.679688E+01  0.000000E+00
  7.812500E-01  1.718750E+01  0.000000E+00
  7.812500E-01  1.757812E+01  0.000000E+00
  7.812500E-01  1.796875E+01  0.000000E+00
  7.812500E-01  1.835938E+01  0.000000E+00
  7.812500E-01  1.875000E+01  0.000000E+00
  7.812500E-01  1.914062E+01  0.000000E+00
  7.812500E-01  1.953125E+01  0.000000E+00
  7.812500E-01  1.992188E+01  0.000000E+00
  7.812500E-01  2.031250E+01  0.000000E+00
  7.812500E-01  2.070312E+01  0.000000E+00
  7.812500E-01  2.109375E+01  0.000000E+00
  7.812500E-01  2.148438E+01  0.000000E+00
  7.812500E-01  2.187500E+01  0.000000E+00
  7.812500E-01  2.226562E+01  0.000000E+00
  7.812500E-01  2.265625E+01  0.000000E+00
  7.812500E-01  2.304688E+01  0.000000E+00
  7.812500E-01  2.343750E+01  0.000000E+00
  7.812500E-01  2.382812E+01  0.000000E+00
  7.812500E-01  2.421875E+01  0.000000E+00
  7.812500E-01  2.460938E+01  0.000000E+00
  1.171875E+00  0.000000E+00  0.000000E+00
  1.171875E+00  3.906250E-01  0.000000E+00
  1.171875E+00  7.812500E-01  0.000000E+00
  1.171875E+00  1.171875E+00  0.000000E+00
  1.171875E+00  1.562500E+00  0.000000E+00
  1.171875E+00  1.953125E+00  0.000000E+00
  1.171875E+00  2.343750E+00  0.000000E+00
  1.171875E+00  2.734375E+00  0.000000E+00
  1.171875E+00  3.125000E+00  0.000000E+00
  1.171875E+00  3.515625E+00  0.000000E+00
  1.171875E+00  3.906250E+00  0.000000E+00
  1.171875E+00  4.296875E+00  0.000000E+00
  1.171875E+00  4.687500E+00  0.000000E+00
  1.171875E+00  5.078125E+00  0.000000E+00
  1.171875E+00  5.468750E+00  0.000000E+00
  1.171875E+00  5.859375E+00  0.000000E+00
  1.171875E+00  6.250000E+00  0.000000E+00
  1.171875E+00  6.640625E+00  0.000000E+00
  1.171875E+00  7.031250E+00  0.000000E+00
  1.171875E+00  7.421875E+00  0.000000E+00
  1.171875E+00  7.812500E+00  0.000000E+00
  1.171875E+00  8.203125E+00  0.000000E+00
  1.171875E+00  8.593750E+00  0.000000E+00
  1.171875E+00  8.984375E+00  0.000000E+00
  1.171875E+00  9.375000E+00  0.000000E+00
  1.171875E+00  9.765625E+00  0.000000E+00
  1.171875E+00  1.015625E+01  0.000000E+00
  1.171875E+00  1.054688E+01  0.000000E+00
  1.171875E+00  1.093750E+01  0.000000E+00
  1.171875E+00  1.132812E+01  0.000000E+00
  1.171875E+00  1.171875E+01  0.000000E+00
  1.171875E+00  1.210938E+01  0.000000E+00
  1.171875E+00  1.250000E+01  0.000000E+00
  1.171875E+00  1.289062E+01  0.000000E+00
  1.171875E+00  1.328125E+01  0.000000E+00
  1.171875E+00  1.367188E+01  0.000000E+00
  1.171875E+00  1.406250E+01  0.000000E+00
  1.171875E+00  1.445312E+01  0.000000E+00
[...]
POINT_DATA   4096
SCALARS CON  float  1
LOOKUP_TABLE default
  4.695495E-01
  4.683188E-01
  4.704277E-01
  4.690065E-01
  4.707315E-01
  4.688684E-01
  4.702276E-01
  4.681637E-01
  4.695117E-01
  4.675971E-01
  4.691993E-01
  4.675881E-01
  4.695006E-01
  4.681734E-01
  4.703085E-01
  4.690980E-01
  4.711948E-01
  4.697554E-01
  4.714334E-01
  4.694364E-01
  4.705154E-01
  4.679993E-01
  4.687480E-01
  4.661538E-01
  4.670762E-01
  4.648477E-01
  4.662327E-01
  4.644673E-01
  4.662487E-01
  4.647875E-01
  4.667904E-01
  4.654914E-01
  4.676098E-01
  4.663673E-01
  4.684494E-01
  4.670418E-01
  4.688186E-01
  4.669980E-01
  4.683342E-01
  4.661559E-01
  4.673256E-01
  4.652412E-01
  4.667671E-01
  4.652279E-01
  4.673555E-01
  4.663193E-01
  4.687201E-01
  4.676639E-01
  4.697782E-01
  4.682794E-01
  4.699524E-01
  4.681605E-01
  4.697702E-01
  4.681286E-01
  4.699951E-01
  4.685640E-01
  4.704627E-01
  4.688347E-01
  4.703632E-01
  4.683333E-01
  4.695966E-01
  4.675602E-01
  4.690968E-01
  4.675238E-01
  4.712229E-01
  4.703463E-01
  4.713561E-01
  4.700218E-01
  4.705263E-01
  4.687989E-01
  4.691428E-01
  4.675277E-01
  4.682124E-01
  4.670651E-01
  4.682305E-01
  4.674916E-01
  4.689553E-01
  4.684065E-01
  4.699682E-01
  4.694302E-01
  4.708987E-01
  4.701345E-01
  4.712286E-01
  4.699660E-01
  4.705110E-01
  4.687591E-01
  4.689908E-01
  4.671831E-01
  4.676337E-01
  4.662634E-01
  4.672559E-01
  4.663960E-01
  4.677502E-01
  4.670390E-01
  4.683312E-01
  4.674072E-01
  4.684272E-01
  4.672590E-01
  4.681182E-01
  4.668835E-01
  4.677428E-01
  4.665316E-01
  4.674053E-01
  4.661961E-01
  4.670880E-01
  4.659573E-01
  4.670211E-01
  4.661539E-01
  4.675273E-01
  4.669392E-01
  4.684830E-01
  4.679114E-01
  4.693285E-01
  4.685526E-01
  4.697819E-01
  4.689158E-01
  4.701824E-01
  4.694443E-01
  4.708411E-01
  4.701357E-01
  4.714057E-01
  4.704240E-01
  4.713518E-01
  4.700857E-01
  4.708971E-01
  4.697276E-01
  4.708031E-01
  4.699430E-01
  4.682211E-01
  4.684508E-01
  4.692333E-01
  4.693211E-01
  4.697071E-01
  4.693007E-01
  4.692600E-01
  4.686104E-01
  4.685490E-01
  4.680710E-01
  4.683045E-01
  4.681717E-01
  4.687445E-01
  4.689065E-01
  4.696963E-01
  4.699566E-01
  4.706779E-01
  4.706645E-01
  4.709023E-01
  4.702449E-01
  4.697832E-01
  4.685095E-01
  4.676490E-01
  4.662824E-01
  4.656498E-01
  4.647709E-01
  4.647719E-01
  4.645434E-01
  4.651049E-01
  4.652866E-01
  4.660948E-01
  4.663769E-01
  4.671636E-01
  4.673151E-01
  4.678613E-01
  4.676613E-01
  4.677636E-01
  4.670811E-01
  4.667521E-01
  4.657972E-01
  4.654475E-01
  4.647667E-01
  4.649566E-01
  4.649768E-01
  4.658722E-01
  4.664363E-01
  4.675887E-01
  4.680789E-01
  4.688814E-01
  4.688839E-01
  4.692353E-01
  4.689716E-01
  4.693078E-01
  4.692364E-01
  4.698352E-01
  4.699218E-01
  4.704360E-01
  4.701581E-01
  4.701150E-01
  4.692693E-01
  4.688550E-01
  4.679816E-01
  4.679082E-01
  4.676354E-01
  4.695356E-01
  4.701310E-01
  4.698046E-01
  4.699946E-01
  4.691726E-01
  4.689473E-01
  4.679294E-01
  4.677874E-01
  4.670994E-01
  4.674342E-01
  4.672489E-01
  4.680157E-01
  4.681444E-01
  4.691043E-01
  4.693217E-01
  4.702728E-01
  4.703673E-01
  4.710501E-01
  4.707122E-01
  4.708218E-01
  4.698498E-01
  4.693898E-01
  4.680485E-01
  4.675207E-01
  4.664419E-01
  4.664496E-01
  4.660503E-01
  4.667195E-01
  4.668170E-01
  4.677265E-01
  4.677916E-01
  4.684504E-01
  4.681444E-01
  4.684174E-01
  4.677914E-01
  4.678485E-01
  4.671090E-01
  4.671301E-01
  4.664084E-01
  4.664946E-01
  4.658982E-01
  4.661890E-01
  4.658809E-01
  4.665165E-01
  4.665482E-01
  4.674406E-01
  4.675817E-01
  4.684151E-01
  4.683666E-01
  4.689668E-01
  4.687439E-01
  4.693029E-01
  4.691833E-01
  4.699281E-01
  4.699655E-01
  4.707251E-01
  4.705721E-01
  4.709579E-01
  4.703522E-01
  4.703559E-01
  4.695726E-01
  4.696637E-01
  4.691911E-01
  4.696848E-01
  4.663782E-01
  4.679099E-01
  4.675189E-01
  4.689789E-01
  4.682353E-01
  4.692151E-01
  4.680337E-01
  4.687445E-01
  4.675134E-01
  4.683719E-01
  4.674209E-01
  4.686179E-01
  4.680046E-01
  4.694964E-01
  4.690985E-01
  4.706825E-01
  4.702015E-01
  4.714842E-01
  4.704758E-01
  4.710552E-01
  4.692798E-01
  4.691805E-01
  4.669650E-01
  4.667666E-01
  4.648155E-01
  4.651813E-01
  4.639672E-01
  4.650943E-01
  4.645382E-01
  4.661410E-01
  4.658535E-01
  4.675316E-01
  4.671548E-01
  4.686038E-01
  4.678743E-01
  4.688654E-01
  4.676102E-01
  4.680765E-01
  4.663934E-01
  4.666318E-01
  4.649988E-01
  4.655858E-01
  4.645459E-01
  4.658469E-01
  4.654779E-01
  4.672478E-01
  4.670402E-01
  4.686469E-01
  4.680308E-01
  4.691359E-01
  4.680998E-01
  4.690021E-01
  4.680258E-01
  4.691861E-01
  4.685146E-01
  4.698459E-01
  4.690764E-01
  4.700118E-01
  4.686457E-01
  4.689764E-01
  4.672135E-01
  4.675102E-01
  4.661072E-01
  4.670512E-01
  4.677629E-01
  4.693435E-01
  4.681421E-01
  4.694180E-01
  4.678072E-01
  4.687203E-01
  4.669224E-01
  4.678861E-01
  4.663568E-01
  4.677255E-01
  4.666340E-01
  4.683891E-01
  4.675899E-01
  4.695381E-01
  4.688421E-01
  4.707999E-01
  4.699927E-01
  4.716790E-01
  4.704173E-01
  4.714917E-01
  4.695493E-01
  4.700124E-01
  4.676768E-01
  4.680754E-01
  4.660351E-01
  4.670257E-01
  4.657338E-01
  4.674534E-01
  4.667112E-01
  4.687006E-01
  4.679282E-01
  4.696419E-01
  4.684506E-01
  4.697148E-01
  4.681337E-01
  4.691177E-01
  4.673759E-01
  4.683036E-01
  4.665891E-01
  4.676160E-01
  4.660715E-01
  4.673381E-01
  4.660875E-01
  4.676620E-01
  4.666721E-01
  4.683959E-01
  4.674035E-01
  4.689788E-01
  4.677498E-01
  4.690944E-01
  4.677354E-01
  4.691075E-01
  4.679242E-01
  4.695432E-01
  4.685605E-01
  4.702229E-01
  4.690700E-01
  4.703748E-01
  4.687821E-01
  4.697109E-01
  4.679365E-01
  4.689409E-01
  4.674672E-01
  4.688796E-01
  4.648714E-01
  4.669925E-01
  4.660945E-01
  4.682797E-01
  4.671577E-01
  4.689495E-01
  4.674119E-01
  4.688882E-01
  4.672010E-01
  4.687005E-01
  4.671754E-01
  4.689275E-01
  4.676990E-01
  4.697487E-01
  4.687702E-01
  4.709601E-01
  4.699422E-01
  4.718572E-01
  4.703161E-01
  4.715133E-01
  4.691819E-01
  4.696806E-01
  4.669035E-01
  4.673163E-01
  4.648328E-01
  4.658471E-01
  4.641353E-01
  4.659338E-01
  4.648859E-01
  4.671490E-01
  4.663452E-01
  4.686503E-01
  4.677196E-01
  4.697574E-01
  4.684391E-01
  4.699919E-01
  4.681340E-01
  4.691655E-01
  4.669011E-01
  4.677376E-01
  4.655542E-01
  4.667511E-01
  4.651380E-01
  4.669845E-01
  4.659420E-01
  4.681401E-01
  4.671506E-01
  4.691106E-01
  4.676861E-01
  4.691659E-01
  4.673764E-01
  4.687202E-01
  4.670499E-01
  4.686946E-01
  4.673573E-01
  4.691968E-01
  4.677915E-01
  4.692741E-01
  4.673127E-01
  4.682191E-01
  4.658654E-01
  4.667163E-01
  4.646875E-01
  4.661603E-01
  4.666488E-01
  4.684255E-01
  4.670776E-01
  4.687123E-01
  4.671144E-01
  4.684966E-01
  4.667402E-01
  4.681114E-01
  4.664899E-01
  4.680970E-01
  4.667520E-01
  4.686282E-01
  4.675213E-01
  4.695990E-01
  4.686499E-01
  4.708136E-01
  4.698272E-01
  4.717741E-01
  4.703627E-01
  4.717066E-01
  4.696132E-01
  4.703457E-01
  4.678681E-01
  4.685547E-01
  4.663949E-01
  4.676901E-01
  4.662803E-01
  4.682863E-01
  4.673899E-01
  4.696184E-01
  4.686426E-01
  4.705526E-01
  4.691263E-01
  4.705674E-01
  4.687433E-01
  4.699074E-01
  4.679374E-01
  4.690718E-01
  4.671654E-01
  4.684374E-01
  4.667288E-01
  4.682428E-01
  4.667934E-01
  4.685415E-01
  4.672504E-01
  4.690385E-01
  4.676550E-01
  4.692459E-01
  4.676270E-01
  4.690303E-01
  4.673460E-01
  4.688383E-01
  4.673699E-01
  4.691235E-01
  4.678544E-01
  4.696522E-01
  4.682305E-01
  4.697088E-01
  4.678945E-01
  4.690326E-01
  4.670427E-01
  4.682273E-01
  4.664870E-01
  4.680356E-01
  4.641964E-01
  4.661924E-01
  4.654352E-01
  4.676639E-01
  4.668510E-01
  4.688037E-01
  4.676040E-01
  4.691700E-01
  4.676683E-01
  4.690654E-01
  4.675437E-01
  4.690629E-01
  4.677815E-01
  4.696157E-01
  4.686557E-01
  4.707271E-01
  4.698230E-01
  4.716942E-01
  4.703152E-01
  4.714949E-01
  4.693398E-01
  4.698335E-01
  4.672480E-01
  4.676720E-01
  4.653899E-01
  4.664093E-01
  4.648707E-01
  4.666239E-01
  4.656835E-01
  4.678316E-01
  4.670734E-01
  4.692186E-01
  4.683094E-01
  4.701831E-01
  4.688985E-01
  4.703125E-01
  4.685248E-01
  4.694630E-01
  4.673190E-01
  4.681088E-01
  4.660761E-01
  4.672269E-01
  4.657270E-01
  4.674537E-01
  4.664292E-01
  4.684144E-01
  4.673782E-01
  4.691076E-01
  4.676683E-01
  4.689846E-01
  4.672561E-01
  4.684932E-01
  4.669038E-01
  4.684245E-01
  4.671303E-01
  4.688123E-01
  4.674416E-01
  4.687893E-01
  4.669048E-01
  4.677139E-01
  4.654464E-01
  4.661714E-01
  4.641733E-01
  4.654677E-01
  4.663944E-01
  4.678344E-01
  4.668057E-01
  4.682480E-01
  4.671189E-01
  4.684147E-01
  4.671515E-01
  4.683663E-01
  4.670907E-01
  4.683570E-01
  4.671854E-01
  4.686013E-01
  4.676234E-01
  4.692699E-01
  4.685317E-01
  4.703700E-01
  4.696968E-01
  4.713998E-01
  4.703572E-01
  4.714909E-01
  4.697870E-01
  4.703243E-01
  4.682476E-01
  4.687434E-01
  4.669752E-01
  4.680503E-01
  4.669807E-01
  4.686978E-01
  4.680651E-01
  4.699327E-01
  4.691644E-01
  4.706796E-01
  4.694501E-01
  4.705062E-01
  4.689047E-01
  4.697219E-01
  4.680231E-01
  4.688674E-01
  4.672919E-01
  4.683268E-01
  4.669819E-01
  4.682588E-01
  4.671339E-01
  4.685715E-01
  4.675155E-01
  4.689143E-01
  4.677240E-01
  4.689364E-01
  4.675721E-01
  4.686886E-01
  4.673488E-01
  4.686106E-01
  4.674912E-01
  4.689695E-01
  4.679771E-01
  4.694310E-01
  4.682486E-01
  4.693876E-01
  4.678490E-01
  4.686910E-01
  4.669985E-01
  4.678707E-01
  4.663789E-01
  4.675595E-01
  4.643119E-01
  4.658644E-01
  4.654987E-01
  4.673726E-01
  4.670549E-01
  4.687311E-01
  4.680451E-01
  4.692799E-01
  4.681763E-01
  4.690982E-01
  4.678432E-01
  4.688032E-01
  4.677690E-01
  4.690856E-01
  4.684566E-01
  4.701105E-01
  4.696307E-01
  4.711578E-01
  4.702532E-01
  4.711197E-01
  4.694574E-01
  4.696469E-01
  4.675534E-01
  4.676589E-01
  4.658368E-01
  4.664870E-01
  4.653428E-01
  4.666547E-01
  4.660413E-01
  4.676955E-01
  4.672326E-01
  4.688741E-01
  4.682689E-01
  4.696610E-01
  4.687123E-01
  4.696855E-01
  4.682836E-01
  4.688397E-01
  4.671439E-01
  4.676062E-01
  4.660536E-01
  4.668726E-01
  4.658068E-01
  4.671222E-01
  4.664402E-01
  4.679403E-01
  4.672183E-01
  4.684943E-01
  4.674554E-01
  4.684333E-01
  4.672118E-01
  4.681732E-01
  4.670897E-01
  4.682728E-01
  4.673875E-01
  4.686371E-01
  4.676162E-01
  4.685246E-01
  4.670284E-01
  4.674564E-01
  4.656220E-01
  4.659730E-01
  4.643733E-01
  4.652352E-01
  4.668289E-01
  4.677836E-01
  4.671467E-01
  4.681138E-01
  4.674153E-01
  4.682762E-01
  4.674584E-01
  4.682131E-01
  4.673217E-01
  4.680510E-01
  4.671984E-01
  4.680465E-01
  4.674007E-01
  4.685318E-01
  4.682016E-01
  4.696047E-01
  4.694094E-01
  4.707297E-01
  4.702005E-01
  4.709738E-01
  4.697948E-01
  4.699716E-01
  4.684045E-01
  4.685054E-01
  4.671932E-01
  4.678058E-01
  4.671209E-01
  4.683130E-01
  4.680220E-01
  4.693466E-01
  4.689253E-01
  4.699194E-01
  4.690665E-01
  4.696319E-01
  4.684372E-01
  4.687969E-01
  4.675461E-01
  4.679848E-01
  4.669153E-01
  4.675958E-01
  4.667836E-01
  4.676927E-01
  4.670417E-01
  4.680178E-01
  4.673320E-01
  4.681890E-01
  4.673426E-01
  4.680556E-01
  4.671388E-01
  4.678914E-01
  4.671247E-01
  4.680990E-01
  4.675572E-01
  4.686834E-01
  4.681622E-01
  4.691573E-01
  4.683783E-01
  4.690514E-01
  4.679667E-01
  4.684243E-01
  4.672608E-01
  4.677844E-01
  4.668024E-01
  4.675689E-01
  4.650304E-01
  4.660671E-01
  4.660692E-01
  4.673511E-01
  4.673701E-01
  4.684560E-01
  4.681223E-01
  4.687810E-01
  4.680369E-01
  4.683873E-01
  4.675041E-01
  4.679212E-01
  4.673049E-01
  4.681360E-01
  4.679832E-01
  4.692012E-01
  4.692345E-01
  4.703513E-01
  4.699783E-01
  4.704490E-01
  4.693265E-01
  4.691159E-01
  4.675376E-01
  4.671941E-01
  4.658176E-01
  4.659400E-01
  4.651703E-01
  4.659073E-01
  4.656548E-01
  4.667538E-01
  4.666952E-01
  4.678333E-01
  4.676783E-01
  4.685996E-01
  4.681217E-01
  4.686415E-01
  4.677361E-01
  4.678785E-01
  4.667289E-01
  4.668226E-01
  4.658355E-01
  4.662613E-01
  4.656865E-01
  4.664956E-01
  4.661816E-01
  4.670800E-01
  4.666918E-01
  4.674093E-01
  4.668170E-01
  4.673878E-01
  4.667576E-01
  4.674072E-01
  4.669355E-01
  4.677540E-01
  4.673816E-01
  4.681644E-01
  4.675935E-01
  4.680377E-01
  4.670590E-01
  4.671289E-01
  4.659157E-01
  4.659688E-01
  4.649818E-01
  4.654674E-01
  4.678075E-01
  4.681857E-01
  4.679070E-01
  4.681463E-01
  4.677159E-01
  4.678212E-01
  4.672944E-01
  4.673505E-01
  4.668259E-01
  4.669406E-01
  4.665399E-01
  4.668542E-01
  4.667308E-01
  4.673818E-01
  4.676070E-01
  4.685438E-01
  4.689061E-01
  4.697607E-01
  4.697963E-01
  4.701191E-01
  4.695208E-01
  4.692506E-01
  4.682426E-01
  4.678444E-01
  4.670141E-01
  4.670428E-01
  4.667700E-01
  4.673426E-01
  4.674716E-01
  4.682236E-01
  4.682919E-01
  4.687835E-01
  4.684726E-01
  4.685625E-01
  4.679157E-01
  4.677990E-01
  4.671049E-01
  4.670946E-01
  4.666241E-01
  4.668960E-01
  4.666967E-01
  4.671636E-01
  4.670369E-01
  4.674394E-01
  4.671350E-01
  4.673049E-01
  4.667920E-01
  4.668542E-01
  4.663847E-01
  4.666464E-01
  4.664871E-01
  4.670863E-01
  4.671958E-01
  4.679177E-01
  4.679706E-01
  4.684779E-01
  4.682256E-01
  4.684272E-01
  4.679507E-01
  4.680585E-01
  4.676224E-01
  4.678674E-01
  4.676043E-01
  4.679956E-01
  4.662354E-01
  4.665958E-01
  4.669736E-01
  4.673820E-01
  4.676522E-01
  4.678236E-01
  4.677774E-01
  4.676169E-01
  4.672914E-01
  4.669670E-01
  4.666398E-01
  4.664960E-01
  4.665150E-01
  4.668252E-01
  4.673116E-01
  4.679886E-01
  4.686346E-01
  4.691954E-01
  4.694429E-01
  4.693873E-01
  4.689240E-01
  4.682143E-01
  4.672920E-01
  4.664071E-01
  4.656115E-01
  4.651048E-01
  4.648424E-01
  4.649139E-01
  4.651797E-01
  4.656655E-01
  4.661991E-01
  4.667944E-01
  4.672784E-01
  4.676722E-01
  4.678246E-01
  4.678019E-01
  4.675245E-01
  4.671457E-01
  4.666645E-01
  4.662776E-01
  4.659728E-01
  4.658815E-01
  4.658936E-01
  4.660436E-01
  4.661601E-01
  4.662709E-01
  4.662506E-01
  4.662048E-01
  4.660864E-01
  4.660523E-01
  4.660631E-01
  4.662400E-01
  4.664783E-01
  4.668255E-01
  4.671175E-01
  4.673737E-01
  4.674409E-01
  4.673864E-01
  4.671303E-01
  4.668203E-01
  4.664424E-01
  4.661779E-01
  4.660046E-01
  4.660558E-01
  4.691711E-01
  4.687645E-01
  4.688876E-01
  4.681395E-01
  4.679854E-01
  4.670690E-01
  4.668713E-01
  4.660269E-01
  4.659934E-01
  4.653808E-01
  4.656286E-01
  4.653354E-01
  4.659303E-01
  4.659916E-01
  4.669108E-01
  4.672118E-01
  4.682254E-01
  4.684279E-01
  4.691373E-01
  4.688662E-01
  4.690167E-01
  4.682172E-01
  4.679866E-01
  4.670383E-01
  4.669198E-01
  4.663084E-01
  4.666622E-01
  4.665405E-01
  4.672865E-01
  4.673753E-01
  4.681140E-01
  4.679943E-01
  4.683847E-01
  4.678662E-01
  4.679039E-01
  4.671603E-01
  4.671491E-01
  4.665374E-01
  4.667967E-01
  4.665146E-01
  4.670653E-01
  4.669471E-01
  4.674786E-01
  4.671555E-01
  4.673512E-01
  4.666607E-01
  4.665741E-01
  4.657846E-01
  4.658301E-01
  4.653840E-01
  4.659004E-01
  4.659299E-01
  4.668037E-01
  4.669886E-01
  4.677969E-01
  4.677453E-01
  4.682440E-01
  4.679199E-01
  4.682672E-01
  4.679430E-01
  4.684120E-01
  4.682568E-01
  4.688524E-01
  4.687094E-01
  4.676418E-01
  4.671588E-01
  4.679332E-01
  4.673328E-01
  4.679069E-01
  4.670603E-01
  4.673873E-01
  4.663377E-01
  4.665470E-01
  4.654980E-01
  4.658462E-01
  4.650743E-01
  4.658112E-01
  4.654840E-01
  4.666416E-01
  4.666218E-01
  4.678956E-01
  4.677564E-01
  4.686805E-01
  4.680198E-01
  4.683508E-01
  4.671440E-01
  4.670832E-01
  4.657087E-01
  4.657226E-01
  4.646336E-01
  4.650767E-01
  4.644791E-01
  4.653992E-01
  4.652026E-01
  4.664030E-01
  4.663356E-01
  4.674972E-01
  4.672243E-01
  4.680414E-01
  4.673451E-01
  4.677463E-01
  4.667345E-01
  4.669920E-01
  4.660311E-01
  4.664962E-01
  4.658121E-01
  4.665167E-01
  4.659487E-01
  4.666125E-01
  4.658765E-01
  4.663247E-01
  4.654232E-01
  4.658350E-01
  4.650590E-01
  4.657362E-01
  4.652988E-01
  4.663000E-01
  4.660912E-01
  4.671734E-01
  4.668863E-01
  4.677603E-01
  4.671950E-01
  4.677939E-01
  4.670234E-01
  4.675302E-01
  4.667898E-01
  4.674229E-01
  4.668537E-01
  4.704621E-01
  4.692649E-01
  4.697062E-01
  4.680750E-01
  4.682061E-01
  4.664356E-01
  4.666049E-01
  4.650232E-01
  4.654863E-01
  4.642560E-01
  4.650905E-01
  4.642276E-01
  4.654113E-01
  4.648657E-01
  4.663137E-01
  4.659495E-01
  4.674621E-01
  4.670196E-01
  4.683076E-01
  4.675218E-01
  4.684072E-01
  4.672400E-01
  4.678473E-01
  4.665671E-01
  4.672500E-01
  4.662121E-01
  4.672416E-01
  4.665669E-01
  4.678850E-01
  4.673508E-01
  4.686234E-01
  4.678642E-01
  4.687826E-01
  4.676238E-01
  4.681953E-01
  4.668315E-01
  4.673957E-01
  4.662270E-01
  4.671373E-01
  4.663681E-01
  4.676118E-01
  4.670030E-01
  4.681728E-01
  4.672621E-01
  4.679787E-01
  4.665910E-01
  4.669493E-01
  4.654364E-01
  4.659526E-01
  4.648505E-01
  4.659291E-01
  4.653995E-01
  4.669236E-01
  4.666222E-01
  4.681383E-01
  4.676461E-01
  4.688903E-01
  4.681559E-01
  4.692671E-01
  4.685309E-01
  4.697322E-01
  4.690952E-01
  4.703130E-01
  4.695433E-01
  4.686421E-01
  4.675687E-01
  4.684867E-01
  4.672979E-01
  4.680579E-01
  4.666956E-01
  4.672967E-01
  4.658189E-01
  4.663748E-01
  4.649444E-01
  4.656542E-01
  4.644837E-01
  4.655378E-01
  4.647503E-01
  4.661620E-01
  4.656370E-01
  4.671581E-01
  4.665605E-01
  4.678373E-01
  4.668726E-01
  4.677358E-01
  4.663962E-01
  4.669956E-01
  4.655470E-01
  4.662002E-01
  4.649442E-01
  4.658843E-01
  4.649578E-01
  4.662216E-01
  4.655718E-01
  4.670303E-01
  4.664631E-01
  4.678699E-01
  4.671118E-01
  4.682119E-01
  4.670883E-01
  4.678473E-01
  4.664940E-01
  4.671958E-01
  4.659666E-01
  4.669224E-01
  4.659800E-01
  4.671471E-01
  4.662616E-01
  4.673112E-01
  4.661801E-01
  4.669500E-01
  4.656119E-01
  4.663294E-01
  4.651249E-01
  4.661364E-01
  4.653164E-01
  4.667128E-01
  4.661938E-01
  4.677497E-01
  4.672280E-01
  4.686359E-01
  4.678681E-01
  4.689948E-01
  4.679729E-01
  4.689184E-01
  4.678067E-01
  4.687428E-01
  4.676677E-01
  4.710175E-01
  4.695656E-01
  4.698914E-01
  4.681065E-01
  4.682426E-01
  4.664335E-01
  4.666963E-01
  4.651237E-01
  4.656821E-01
  4.644207E-01
  4.652795E-01
  4.642978E-01
  4.654155E-01
  4.646712E-01
  4.659958E-01
  4.654087E-01
  4.668164E-01
  4.662191E-01
  4.675199E-01
  4.667382E-01
  4.678168E-01
  4.668278E-01
  4.677653E-01
  4.667365E-01
  4.677444E-01
  4.668745E-01
  4.680830E-01
  4.673944E-01
  4.687045E-01
  4.679933E-01
  4.691394E-01
  4.681399E-01
  4.689242E-01
  4.675657E-01
  4.680798E-01
  4.666144E-01
  4.672265E-01
  4.660562E-01
  4.670993E-01
  4.663918E-01
  4.678076E-01
  4.672772E-01
  4.686168E-01
  4.677679E-01
  4.686277E-01
  4.672671E-01
  4.677257E-01
  4.661883E-01
  4.667467E-01
  4.655624E-01
  4.666370E-01
  4.660047E-01
  4.675416E-01
  4.671944E-01
  4.688120E-01
  4.683743E-01
  4.698046E-01
  4.691672E-01
  4.704474E-01
  4.697283E-01
  4.709681E-01
  4.701924E-01
  4.712980E-01
  4.702729E-01
  4.686578E-01
  4.677362E-01
  4.682443E-01
  4.673963E-01
  4.679361E-01
  4.670664E-01
  4.675327E-01
  4.665538E-01
  4.669063E-01
  4.658502E-01
  4.662040E-01
  4.652555E-01
  4.658247E-01
  4.651686E-01
  4.660486E-01
  4.656519E-01
  4.666797E-01
  4.662874E-01
  4.671827E-01
  4.665637E-01
  4.672027E-01
  4.663640E-01
  4.668689E-01
  4.660012E-01
  4.665717E-01
  4.658330E-01
  4.665584E-01
  4.659698E-01
  4.668228E-01
  4.663324E-01
  4.672491E-01
  4.667772E-01
  4.676502E-01
  4.670585E-01
  4.677389E-01
  4.669130E-01
  4.673764E-01
  4.664202E-01
  4.668933E-01
  4.660989E-01
  4.668451E-01
  4.663509E-01
  4.673268E-01
  4.669157E-01
  4.678018E-01
  4.671605E-01
  4.677538E-01
  4.668525E-01
  4.672998E-01