# vtk DataFile Version 2.0
title
ASCII
DATASET STRUCTURED_GRID
DIMENSIONS   64   64    1
POINTS   4096  float
  0.000000E+00  0.000000E+00  0.000000E+00
  0.000000E+00  3.906250E-01  0.000000E+00
  0.000000E+00  7.812500E-01  0.000000E+00
  0.000000E+00  1.171875E+00  0.000000E+00
  0.000000E+00  1.562500E+00  0.000000E+00
  0.000000E+00  1.953125E+00  0.000000E+00
  0.000000E+00  2.343750E+00  0.000000E+00
  0.000000E+00  2.734375E+00  0.000000E+00
  0.000000E+00  3.125000E+00  0.000000E+00
  0.000000E+00  3.515625E+00  0.000000E+00
  0.000000E+00  3.906250E+00  0.000000E+00
  0.000000E+00  4.296875E+00  0.000000E+00
  0.000000E+00  4.687500E+00  0.000000E+00
  0.000000E+00  5.078125E+00  0.000000E+00
  0.000000E+00  5.468750E+00  0.000000E+00
  0.000000E+00  5.859375E+00  0.000000E+00
  0.000000E+00  6.250000E+00  0.000000E+00
  0.000000E+00  6.640625E+00  0.000000E+00
  0.000000E+00  7.031250E+00  0.000000E+00
  0.000000E+00  7.421875E+00  0.000000E+00
  0.000000E+00  7.812500E+00  0.000000E+00
  0.000000E+00  8.203125E+00  0.000000E+00
  0.000000E+00  8.593750E+00  0.000000E+00
  0.000000E+00  8.984375E+00  0.000000E+00
  0.000000E+00  9.375000E+00  0.000000E+00
  0.000000E+00  9.765625E+00  0.000000E+00
  0.000000E+00  1.015625E+01  0.000000E+00
  0.000000E+00  1.054688E+01  0.000000E+00
  0.000000E+00  1.093750E+01  0.000000E+00
  0.000000E+00  1.132812E+01  0.000000E+00
  0.000000E+00  1.171875E+01  0.000000E+00
  0.000000E+00  1.210938E+01  0.000000E+00
  0.000000E+00  1.250000E+01  0.000000E+00
  0.000000E+00  1.289062E+01  0.000000E+00
  0.000000E+00  1.328125E+01  0.000000E+00
  0.000000E+00  1.367188E+01  0.000000E+00
  0.000000E+00  1.406250E+01  0.000000E+00
  0.000000E+00  1.445312E+01  0.000000E+00
  0.000000E+00  1.484375E+01  0.000000E+00
  0.000000E+00  1.523438E+01  0.000000E+00
  0.000000E+00  1.562500E+01  0.000000E+00
  0.000000E+00  1.601562E+01  0.000000E+00
  0.000000E+00  1.640625E+01  0.000000E+00
  0.000000E+00  1.679688E+01  0.000000E+00
  0.000000E+00  1.718750E+01  0.000000E+00
  0.000000E+00  1.757812E+01  0.000000E+00
  0.000000E+00  1.796875E+01  0.000000E+00
  0.000000E+00  1.835938E+01  0.000000E+00
  0.000000E+00  1.875000E+01  0.000000E+00
  0.000000E+00  1.914062E+01  0.000000E+00
  0.000000E+00  1.953125E+01  0.000000E+00
  0.000000E+00  1.992188E+01  0.000000E+00
  0.000000E+00  2.031250E+01  0.000000E+00
  0.000000E+00  2.070312E+01  0.000000E+00
  0.000000E+00  2.109375E+01  0.000000E+00
  0.000000E+00  2.148438E+01  0.000000E+00
  0.000000E+00  2.187500E+01  0.000000E+00
  0.000000E+00  2.226562E+01  0.000000E+00
  0.000000E+00  2.265625E+01  0.000000E+00
  0.000000E+00  2.304688E+01  0.000000E+00
  0.000000E+00  2.343750E+01  0.000000E+00
  0.000000E+00  2.382812E+01  0.000000E+00
  0.000000E+00  2.421875E+01  0.000000E+00
  0.000000E+00  2.460938E+01  0.000000E+00
  3.906250E-01  0.000000E+00  0.000000E+00
  3.906250E-01  3.906250E-01  0.000000E+00
  3.906250E-01  7.812500E-01  0.000000E+00
  3.906250E-01  1.171875E+00  0.000000E+00
  3.906250E-01  1.562500E+00  0.000000E+00
  3.906250E-01  1.953125E+00  0.000000E+00
  3.906250E-01  2.343750E+00  0.000000E+00
  3.906250E-01  2.734375E+00  0.000000E+00
  3.906250E-01  3.125000E+00  0.000000E+00
  3.906250E-01  3.515625E+00  0.000000E+00
  3.906250E-01  3.906250E+00  0.000000E+00
  3.906250E-01  4.296875E+00  0.000000E+00
  3.906250E-01  4.687500E+00  0.000000E+00
  3.906250E-01  5.078125E+00  0.000000E+00
  3.906250E-01  5.468750E+00  0.000000E+00
  3.906250E-01  5.859375E+00  0.000000E+00
  3.906250E-01  6.250000E+00  0.000000E+00
  3.906250E-01  6.640625E+00  0.000000E+00
  3.906250E-01  7.031250E+00  0.000000E+00
  3.906250E-01  7.421875E+00  0.000000E+00
  3.906250E-01  7.812500E+00  0.000000E+00
  3.906250E-01  8.203125E+00  0.000000E+00
  3.906250E-01  8.593750E+00  0.000000E+00
  3.906250E-01  8.984375E+00  0.000000E+00
  3.906250E-01  9.375000E+00  0.000000E+00
  3.906250E-01  9.765625E+00  0.000000E+00
  3.906250E-01  1.015625E+01  0.000000E+00
  3.906250E-01  1.054688E+01  0.000000E+00
  3.906250E-01  1.093750E+01  0.000000E+00
  3.906250E-01  1.132812E+01  0.000000E+00
  3.906250E-01  1.171875E+01  0.000000E+00
  3.906250E-01  1.210938E+01  0.000000E+00
  3.906250E-01  1.250000E+01  0.000000E+00
  3.906250E-01  1.289062E+01  0.000000E+00
  3.906250E-01  1.328125E+01  0.000000E+00
  3.906250E-01  1.367188E+01  0.000000E+00
  3.906250E-01  1.406250E+01  0.000000E+00
  3.906250E-01  1.445312E+01  0.000000E+00
  3.906250E-01  1.484375E+01  0.000000E+00
  3.906250E-01  1.523438E+01  0.000000E+00
  3.906250E-01  1.562500E+01  0.000000E+00
  3.906250E-01  1.601562E+01  0.000000E+00
  3.906250E-01  1.640625E+01  0.000000E+00
  3.906250E-01  1.679688E+01  0.000000E+00
  3.906250E-01  1.718750E+01  0.000000E+00
  3.906250E-01  1.757812E+01  0.000000E+00
  3.906250E-01  1.796875E+01  0.000000E+00
  3.906250E-01  1.835938E+01  0.000000E+00
  3.906250E-01  1.875000E+01  0.000000E+00
  3.906250E-01  1.914062E+01  0.000000E+00
  3.906250E-01  1.953125E+01  0.000000E+00
  3.906250E-01  1.992188E+01  0.000000E+00
  3.906250E-01  2.031250E+01  0.000000E+00
  3.906250E-01  2.070312E+01  0.000000E+00
  3.906250E-01  2.109375E+01  0.000000E+00
  3.906250E-01  2.148438E+01  0.000000E+00
  3.906250E-01  2.187500E+01  0.000000E+00
  3.906250E-01  2.226562E+01  0.000000E+00
  3.906250E-01  2.265625E+01  0.000000E+00
  3.906250E-01  2.304688E+01  0.000000E+00
  3.906250E-01  2.343750E+01  0.000000E+00
  3.906250E-01  2.382812E+01  0.000000E+00
  3.906250E-01  2.421875E+01  0.000000E+00
  3.906250E-01  2.460938E+01  0.000000E+00
  7.812500E-01  0.000000E+00  0.000000E+00
  7.812500E-01  3.906250E-01  0.000000E+00
  7.812500E-01  7.812500E-01  0.000000E+00
  7.812500E-01  1.171875E+00  0.000000E+00
  7.812500E-01  1.562500E+00  0.000000E+00
  7.812500E-01  1.953125E+00  0.000000E+00
  7.812500E-01  2.343750E+00  0.000000E+00
  7.812500E-01  2.734375E+00  0.000000E+00
  7.812500E-01  3.125000E+00  0.000000E+00
  7.812500E-01  3.515625E+00  0.000000E+00
  7.812500E-01  3.906250E+00  0.000000E+00
  7.812500E-01  4.296875E+00  0.000000E+00
  7.812500E-01  4.687500E+00  0.000000E+00
  7.812500E-01  5.078125E+00  0.000000E+00
  7.812500E-01  5.468750E+00  0.000000E+00
  7.812500E-01  5.859375E+00  0.000000E+00
  7.812500E-01  6.250000E+00  0.000000E+00
  7.812500E-01  6.640625E+00  0.000000E+00
  7.812500E-01  7.031250E+00  0.000000E+00
  7.812500E-01  7.421875E+00  0.000000E+00
  7.812500E-01  7.812500E+00  0.000000E+00
  7.812500E-01  8.203125E+00  0.000000E+00
  7.812500E-01  8.593750E+00  0.000000E+00
  7.812500E-01  8.984375E+00  0.000000E+00
  7.812500E-01  9.375000E+00  0.000000E+00
  7.812500E-01  9.765625E+00  0.000000E+00
  7.812500E-01  1.015625E+01  0.000000E+00
  7.812500E-01  1.054688E+01  0.000000E+00
  7.812500E-01  1.093750E+01  0.000000E+00
  7.812500E-01  1.132812E+01  0.000000E+00
  7.812500E-01  1.171875E+01  0.000000E+00
  7.812500E-01  1.210938E+01  0.000000E+00
  7.812500E-01  1.250000E+01  0.000000E+00
  7.812500E-01  1.289062E+01  0.000000E+00
  7.812500E-01  1.328125E+01  0.000000E+00
  7.812500E-01  1.367188E+01  0.000000E+00
  7.812500E-01  1.406250E+01  0.000000E+00
  7.812500E-01  1.445312E+01  0.000000E+00
  7.812500E-01  1.484375E+01  0.000000E+00
  7.812500E-01  1.523438E+01  0.000000E+00
  7.812500E-01  1.562500E+01  0.000000E+00
  7.812500E-01  1.601562E+01  0.000000E+00
  7.812500E-01  1.640625E+01  0.000000E+00
  7.812500E-01  1.679688E+01  0.000000E+00
  7.812500E-01  1.718750E+01  0.000000E+00
  7.812500E-01  1.757812E+01  0.000000E+00
  7.812500E-01  1.796875E+01  0.000000E+00
  7.812500E-01  1.835938E+01  0.000000E+00
  7.812500E-01  1.875000E+01  0.000000E+00
  7.812500E-01  1.914062E+01  0.000000E+00
  7.812500E-01  1.953125E+01  0.000000E+00
  7.812500E-01  1.992188E+01  0.000000E+00
  7.812500E-01  2.031250E+01  0.000000E+00
  7.812500E-01  2.070312E+01  0.000000E+00
  7.812500E-01  2.109375E+01  0.000000E+00
  7.812500E-01  2.148438E+01  0.000000E+00
  7.812500E-01  2.187500E+01  0.000000E+00
  7.812500E-01  2.226562E+01  0.000000E+00
  7.812500E-01  2.265625E+01  0.000000E+00
  7.812500E-01  2.304688E+01  0.000000E+00
  7.812500E-01  2.343750E+01  0.000000E+00
  7.812500E-01  2.382812E+01  0.000000E+00
  7.812500E-01  2.421875E+01  0.000000E+00
  7.812500E-01  2.460938E+01  0.000000E+00
  1.171875E+00  0.000000E+00  0.000000E+00
  1.171875E+00  3.906250E-01  0.000000E+00
  1.171875E+00  7.812500E-01  0.000000E+00
  1.171875E+00  1.171875E+00  0.000000E+00
  1.171875E+00  1.562500E+00  0.000000E+00
  1.171875E+00  1.953125E+00  0.000000E+00
  1.171875E+00  2.343750E+00  0.000000E+00
  1.171875E+00  2.734375E+00  0.000000E+00
  1.171875E+00  3.125000E+00  0.000000E+00
  1.171875E+00  3.515625E+00  0.000000E+00
  1.171875E+00  3.906250E+00  0.000000E+00
  1.171875E+00  4.296875E+00  0.000000E+00
  1.171875E+00  4.687500E+00  0.000000E+00
  1.171875E+00  5.078125E+00  0.000000E+00
  1.171875E+00  5.468750E+00  0.000000E+00
  1.171875E+00  5.859375E+00  0.000000E+00
  1.171875E+00  6.250000E+00  0.000000E+00
  1.171875E+00  6.640625E+00  0.000000E+00
  1.171875E+00  7.031250E+00  0.000000E+00
  1.171875E+00  7.421875E+00  0.000000E+00
  1.171875E+00  7.812500E+00  0.000000E+00
  1.171875E+00  8.203125E+00  0.000000E+00
  1.171875E+00  8.593750E+00  0.000000E+00
  1.171875E+00  8.984375E+00  0.000000E+00
  1.171875E+00  9.375000E+00  0.000000E+00
  1.171875E+00  9.765625E+00  0.000000E+00
  1.171875E+00  1.015625E+01  0.000000E+00
  1.171875E+00  1.054688E+01  0.000000E+00
  1.171875E+00  1.093750E+01  0.000000E+00
  1.171875E+00  1.132812E+01  0.000000E+00
  1.171875E+00  1.171875E+01  0.000000E+00
  1.171875E+00  1.210938E+01  0.000000E+00
  1.171875E+00  1.250000E+01  0.000000E+00
  1.171875E+00  1.289062E+01  0.000000E+00
  1.171875E+00  1.328125E+01  0.000000E+00
  1.171875E+00  1.367188E+01  0.000000E+00
  1.171875E+00  1.406250E+01  0.000000E+00
  1.171875E+00  1.445312E+01  0.000000E+00
[...]
POINT_DATA   4096
SCALARS CON  float  1
LOOKUP_TABLE default
  4.697162E-01
  4.692722E-01
  4.725572E-01
  4.706889E-01
  4.721455E-01
  4.690561E-01
  4.704576E-01
  4.682430E-01
  4.706396E-01
  4.687814E-01
  4.707224E-01
  4.680641E-01
  4.695613E-01
  4.672368E-01
  4.697323E-01
  4.685368E-01
  4.716806E-01
  4.703024E-01
  4.724996E-01
  4.698091E-01
  4.708033E-01
  4.673229E-01
  4.680008E-01
  4.646184E-01
  4.657909E-01
  4.633329E-01
  4.657741E-01
  4.645744E-01
  4.677391E-01
  4.663873E-01
  4.686905E-01
  4.664020E-01
  4.683527E-01
  4.664712E-01
  4.691424E-01
  4.675944E-01
  4.698148E-01
  4.672169E-01
  4.683571E-01
  4.651485E-01
  4.662748E-01
  4.634532E-01
  4.651246E-01
  4.629435E-01
  4.654685E-01
  4.644510E-01
  4.682886E-01
  4.682341E-01
  4.720490E-01
  4.706425E-01
  4.721249E-01
  4.684647E-01
  4.690245E-01
  4.664237E-01
  4.695532E-01
  4.696238E-01
  4.740036E-01
  4.731765E-01
  4.749668E-01
  4.711526E-01
  4.709233E-01
  4.668276E-01
  4.679959E-01
  4.662563E-01
  4.714572E-01
  4.715353E-01
  4.739584E-01
  4.724390E-01
  4.726279E-01
  4.693124E-01
  4.690592E-01
  4.668045E-01
  4.684075E-01
  4.677480E-01
  4.699635E-01
  4.689020E-01
  4.702246E-01
  4.684524E-01
  4.696946E-01
  4.685050E-01
  4.706179E-01
  4.699997E-01
  4.719186E-01
  4.703025E-01
  4.708604E-01
  4.681618E-01
  4.683469E-01
  4.659843E-01
  4.669036E-01
  4.653591E-01
  4.670531E-01
  4.662350E-01
  4.685349E-01
  4.679910E-01
  4.700237E-01
  4.686758E-01
  4.696585E-01
  4.674461E-01
  4.680767E-01
  4.660813E-01
  4.672829E-01
  4.658504E-01
  4.672731E-01
  4.655783E-01
  4.663953E-01
  4.641217E-01
  4.647938E-01
  4.630334E-01
  4.648224E-01
  4.645045E-01
  4.676593E-01
  4.681645E-01
  4.711672E-01
  4.703928E-01
  4.714092E-01
  4.689417E-01
  4.696311E-01
  4.685758E-01
  4.716683E-01
  4.725141E-01
  4.757452E-01
  4.747821E-01
  4.752152E-01
  4.718659E-01
  4.713001E-01
  4.684894E-01
  4.695233E-01
  4.686950E-01
  4.674033E-01
  4.697093E-01
  4.722133E-01
  4.725040E-01
  4.720437E-01
  4.699041E-01
  4.686371E-01
  4.674202E-01
  4.679780E-01
  4.683473E-01
  4.695097E-01
  4.694884E-01
  4.698097E-01
  4.691577E-01
  4.694434E-01
  4.693032E-01
  4.702622E-01
  4.704810E-01
  4.711866E-01
  4.705687E-01
  4.701621E-01
  4.685474E-01
  4.675407E-01
  4.658243E-01
  4.651878E-01
  4.642242E-01
  4.645689E-01
  4.645657E-01
  4.655532E-01
  4.656881E-01
  4.663868E-01
  4.661357E-01
  4.667048E-01
  4.666760E-01
  4.675672E-01
  4.675600E-01
  4.679461E-01
  4.670246E-01
  4.664394E-01
  4.648241E-01
  4.639814E-01
  4.625593E-01
  4.623439E-01
  4.619753E-01
  4.631710E-01
  4.643506E-01
  4.668411E-01
  4.685919E-01
  4.705714E-01
  4.707264E-01
  4.705492E-01
  4.689451E-01
  4.683603E-01
  4.680526E-01
  4.698718E-01
  4.717535E-01
  4.742217E-01
  4.746516E-01
  4.740900E-01
  4.712153E-01
  4.684832E-01
  4.654583E-01
  4.646511E-01
  4.648828E-01
  4.686748E-01
  4.714627E-01
  4.723060E-01
  4.730782E-01
  4.709267E-01
  4.690941E-01
  4.660092E-01
  4.653301E-01
  4.647998E-01
  4.667521E-01
  4.677567E-01
  4.697024E-01
  4.695275E-01
  4.699814E-01
  4.688707E-01
  4.693921E-01
  4.691694E-01
  4.707082E-01
  4.708592E-01
  4.717679E-01
  4.705615E-01
  4.700808E-01
  4.680807E-01
  4.675887E-01
  4.661085E-01
  4.662873E-01
  4.654292E-01
  4.662167E-01
  4.660273E-01
  4.674386E-01
  4.675357E-01
  4.686375E-01
  4.678633E-01
  4.679217E-01
  4.664686E-01
  4.665545E-01
  4.657465E-01
  4.666147E-01
  4.661570E-01
  4.666687E-01
  4.653763E-01
  4.651774E-01
  4.638729E-01
  4.645190E-01
  4.645756E-01
  4.665149E-01
  4.673179E-01
  4.692491E-01
  4.693151E-01
  4.699874E-01
  4.687041E-01
  4.685777E-01
  4.676186E-01
  4.689849E-01
  4.699693E-01
  4.725686E-01
  4.732042E-01
  4.738882E-01
  4.719302E-01
  4.705170E-01
  4.677576E-01
  4.669904E-01
  4.659850E-01
  4.675164E-01
  4.650185E-01
  4.692335E-01
  4.696974E-01
  4.719012E-01
  4.693146E-01
  4.689119E-01
  4.653622E-01
  4.659112E-01
  4.645093E-01
  4.672050E-01
  4.669771E-01
  4.695854E-01
  4.684132E-01
  4.699727E-01
  4.682940E-01
  4.701047E-01
  4.691559E-01
  4.716082E-01
  4.706993E-01
  4.724071E-01
  4.701814E-01
  4.704565E-01
  4.671471E-01
  4.669822E-01
  4.639405E-01
  4.646141E-01
  4.627161E-01
  4.645302E-01
  4.635061E-01
  4.657864E-01
  4.648424E-01
  4.669764E-01
  4.658633E-01
  4.679280E-01
  4.668100E-01
  4.687735E-01
  4.672961E-01
  4.686041E-01
  4.663041E-01
  4.668725E-01
  4.642001E-01
  4.649840E-01
  4.631693E-01
  4.652644E-01
  4.648070E-01
  4.678424E-01
  4.676025E-01
  4.700974E-01
  4.687532E-01
  4.698988E-01
  4.673466E-01
  4.678509E-01
  4.655739E-01
  4.673164E-01
  4.668081E-01
  4.700314E-01
  4.699003E-01
  4.720414E-01
  4.696968E-01
  4.693640E-01
  4.653088E-01
  4.647880E-01
  4.622693E-01
  4.645387E-01
  4.671903E-01
  4.705972E-01
  4.696058E-01
  4.715432E-01
  4.682123E-01
  4.679934E-01
  4.638216E-01
  4.645774E-01
  4.627390E-01
  4.660551E-01
  4.658572E-01
  4.693313E-01
  4.680502E-01
  4.700363E-01
  4.678076E-01
  4.699183E-01
  4.687082E-01
  4.719551E-01
  4.711071E-01
  4.735025E-01
  4.708746E-01
  4.713655E-01
  4.675145E-01
  4.678214E-01
  4.646425E-01
  4.660186E-01
  4.639335E-01
  4.663128E-01
  4.651662E-01
  4.683422E-01
  4.675686E-01
  4.703857E-01
  4.685119E-01
  4.699378E-01
  4.670860E-01
  4.684422E-01
  4.663467E-01
  4.686614E-01
  4.670055E-01
  4.689540E-01
  4.664895E-01
  4.679220E-01
  4.657651E-01
  4.682334E-01
  4.671879E-01
  4.701310E-01
  4.686552E-01
  4.705431E-01
  4.679138E-01
  4.689631E-01
  4.660012E-01
  4.672992E-01
  4.651801E-01
  4.677423E-01
  4.668418E-01
  4.699751E-01
  4.686536E-01
  4.705696E-01
  4.678589E-01
  4.688437E-01
  4.659381E-01
  4.673800E-01
  4.653750E-01
  4.679872E-01
  4.642914E-01
  4.678570E-01
  4.673163E-01
  4.699066E-01
  4.675379E-01
  4.683783E-01
  4.652077E-01
  4.665139E-01
  4.647057E-01
  4.674787E-01
  4.665076E-01
  4.692078E-01
  4.675348E-01
  4.695295E-01
  4.677137E-01
  4.702818E-01
  4.694010E-01
  4.726198E-01
  4.715542E-01
  4.736028E-01
  4.706964E-01
  4.708429E-01
  4.666036E-01
  4.663990E-01
  4.628549E-01
  4.641107E-01
  4.622961E-01
  4.650511E-01
  4.641906E-01
  4.672948E-01
  4.663174E-01
  4.690633E-01
  4.677000E-01
  4.701677E-01
  4.686410E-01
  4.709309E-01
  4.690220E-01
  4.706210E-01
  4.678218E-01
  4.686596E-01
  4.656285E-01
  4.670063E-01
  4.651883E-01
  4.679966E-01
  4.672149E-01
  4.702232E-01
  4.687756E-01
  4.706172E-01
  4.680013E-01
  4.690209E-01
  4.660333E-01
  4.671050E-01
  4.645692E-01
  4.664587E-01
  4.649481E-01
  4.677390E-01
  4.666246E-01
  4.690867E-01
  4.669935E-01
  4.681743E-01
  4.649856E-01
  4.657261E-01
  4.630405E-01
  4.651737E-01
  4.666620E-01
  4.686353E-01
  4.676809E-01
  4.695115E-01
  4.676866E-01
  4.683272E-01
  4.657321E-01
  4.665742E-01
  4.651190E-01
  4.674306E-01
  4.669785E-01
  4.693383E-01
  4.680939E-01
  4.694671E-01
  4.678168E-01
  4.697596E-01
  4.693693E-01
  4.724246E-01
  4.721206E-01
  4.738906E-01
  4.713648E-01
  4.709466E-01
  4.672061E-01
  4.669521E-01
  4.644885E-01
  4.659527E-01
  4.650181E-01
  4.675384E-01
  4.672330E-01
  4.700707E-01
  4.697283E-01
  4.720140E-01
  4.705936E-01
  4.716166E-01
  4.693179E-01
  4.702424E-01
  4.685104E-01
  4.700998E-01
  4.685512E-01
  4.697188E-01
  4.675792E-01
  4.686198E-01
  4.671097E-01
  4.692170E-01
  4.685100E-01
  4.706156E-01
  4.691144E-01
  4.701315E-01
  4.678087E-01
  4.685276E-01
  4.663614E-01
  4.675278E-01
  4.659973E-01
  4.678778E-01
  4.669027E-01
  4.688919E-01
  4.674978E-01
  4.688149E-01
  4.669452E-01
  4.682344E-01
  4.666407E-01
  4.681590E-01
  4.665707E-01
  4.680437E-01
  4.634937E-01
  4.655057E-01
  4.657314E-01
  4.681130E-01
  4.678942E-01
  4.693565E-01
  4.682604E-01
  4.692780E-01
  4.682271E-01
  4.695125E-01
  4.685742E-01
  4.696171E-01
  4.682315E-01
  4.690417E-01
  4.680196E-01
  4.698082E-01
  4.699398E-01
  4.723820E-01
  4.721506E-01
  4.731594E-01
  4.708734E-01
  4.699504E-01
  4.665726E-01
  4.657990E-01
  4.637348E-01
  4.649123E-01
  4.646942E-01
  4.670041E-01
  4.670053E-01
  4.688651E-01
  4.682230E-01
  4.696619E-01
  4.689864E-01
  4.706693E-01
  4.702205E-01
  4.717789E-01
  4.706507E-01
  4.710486E-01
  4.686620E-01
  4.682435E-01
  4.658948E-01
  4.664066E-01
  4.655017E-01
  4.673698E-01
  4.672279E-01
  4.691022E-01
  4.684174E-01
  4.695837E-01
  4.683184E-01
  4.690985E-01
  4.675646E-01
  4.681603E-01
  4.666226E-01
  4.675181E-01
  4.665575E-01
  4.680752E-01
  4.674695E-01
  4.688720E-01
  4.676850E-01
  4.682147E-01
  4.661267E-01
  4.660260E-01
  4.638618E-01
  4.644008E-01
  4.655755E-01
  4.663924E-01
  4.663259E-01
  4.681012E-01
  4.682243E-01
  4.693867E-01
  4.685731E-01
  4.691020E-01
  4.682859E-01
  4.692688E-01
  4.688541E-01
  4.697471E-01
  4.687368E-01
  4.689881E-01
  4.679136E-01
  4.689887E-01
  4.693145E-01
  4.715431E-01
  4.719378E-01
  4.728618E-01
  4.710793E-01
  4.699882E-01
  4.673298E-01
  4.668738E-01
  4.659591E-01
  4.674687E-01
  4.679094E-01
  4.698207E-01
  4.699179E-01
  4.712012E-01
  4.707146E-01
  4.714999E-01
  4.705099E-01
  4.708063E-01
  4.695218E-01
  4.698626E-01
  4.688582E-01
  4.693948E-01
  4.682467E-01
  4.683750E-01
  4.669373E-01
  4.672709E-01
  4.665642E-01
  4.677819E-01
  4.676216E-01
  4.688191E-01
  4.682453E-01
  4.690046E-01
  4.681973E-01
  4.688889E-01
  4.680436E-01
  4.687311E-01
  4.680648E-01
  4.691698E-01
  4.689355E-01
  4.701141E-01
  4.694267E-01
  4.698662E-01
  4.686146E-01
  4.689280E-01
  4.678256E-01
  4.681734E-01
  4.668043E-01
  4.668341E-01
  4.625244E-01
  4.639588E-01
  4.646813E-01
  4.671555E-01
  4.680700E-01
  4.699589E-01
  4.698513E-01
  4.707140E-01
  4.698786E-01
  4.703478E-01
  4.692730E-01
  4.694765E-01
  4.681419E-01
  4.683521E-01
  4.675576E-01
  4.688268E-01
  4.692091E-01
  4.711674E-01
  4.712873E-01
  4.719858E-01
  4.702711E-01
  4.692761E-01
  4.667178E-01
  4.661210E-01
  4.650720E-01
  4.664527E-01
  4.669748E-01
  4.688609E-01
  4.687379E-01
  4.693475E-01
  4.681120E-01
  4.683783E-01
  4.676716E-01
  4.689351E-01
  4.690378E-01
  4.703658E-01
  4.696161E-01
  4.694898E-01
  4.673419E-01
  4.665335E-01
  4.647223E-01
  4.650608E-01
  4.646434E-01
  4.660585E-01
  4.661395E-01
  4.675769E-01
  4.674815E-01
  4.687342E-01
  4.684239E-01
  4.692965E-01
  4.684099E-01
  4.687114E-01
  4.675949E-01
  4.682199E-01
  4.678672E-01
  4.692883E-01
  4.693027E-01
  4.704068E-01
  4.694742E-01
  4.692908E-01
  4.671135E-01
  4.660960E-01
  4.637783E-01
  4.634418E-01
  4.652620E-01
  4.659382E-01
  4.658292E-01
  4.676190E-01
  4.679367E-01
  4.692994E-01
  4.686688E-01
  4.691531E-01
  4.681530E-01
  4.687864E-01
  4.680855E-01
  4.687507E-01
  4.677056E-01
  4.679652E-01
  4.669630E-01
  4.680036E-01
  4.682905E-01
  4.704364E-01
  4.708984E-01
  4.719850E-01
  4.705422E-01
  4.697857E-01
  4.674835E-01
  4.672645E-01
  4.665759E-01
  4.681967E-01
  4.686988E-01
  4.704401E-01
  4.701829E-01
  4.708503E-01
  4.697239E-01
  4.699228E-01
  4.686343E-01
  4.688206E-01
  4.676135E-01
  4.679864E-01
  4.670199E-01
  4.675462E-01
  4.665432E-01
  4.669185E-01
  4.658790E-01
  4.665201E-01
  4.660080E-01
  4.671779E-01
  4.669264E-01
  4.680258E-01
  4.675331E-01
  4.684147E-01
  4.677680E-01
  4.684680E-01
  4.675911E-01
  4.681941E-01
  4.676037E-01
  4.688954E-01
  4.690407E-01
  4.706024E-01
  4.702954E-01
  4.709058E-01
  4.696639E-01
  4.697378E-01
  4.683409E-01
  4.683483E-01
  4.667710E-01
  4.666183E-01
  4.632519E-01
  4.646717E-01
  4.650077E-01
  4.671233E-01
  4.675929E-01
  4.692861E-01
  4.689342E-01
  4.696872E-01
  4.685603E-01
  4.688461E-01
  4.675190E-01
  4.677595E-01
  4.665218E-01
  4.670978E-01
  4.665503E-01
  4.680949E-01
  4.684819E-01
  4.705130E-01
  4.706362E-01
  4.716135E-01
  4.701496E-01
  4.695005E-01
  4.669650E-01
  4.662707E-01
  4.648047E-01
  4.658584E-01
  4.660047E-01
  4.677689E-01
  4.674659E-01
  4.680358E-01
  4.666129E-01
  4.668375E-01
  4.660032E-01
  4.673124E-01
  4.673305E-01
  4.686904E-01
  4.678693E-01
  4.679238E-01
  4.660071E-01
  4.657167E-01
  4.643227E-01
  4.650946E-01
  4.647730E-01
  4.662217E-01
  4.660868E-01
  4.673976E-01
  4.670189E-01
  4.680755E-01
  4.673879E-01
  4.680254E-01
  4.668833E-01
  4.672523E-01
  4.662585E-01
  4.672456E-01
  4.671268E-01
  4.688493E-01
  4.689434E-01
  4.701743E-01
  4.691712E-01
  4.690347E-01
  4.668372E-01
  4.660684E-01
  4.639969E-01
  4.640558E-01
  4.671435E-01
  4.676346E-01
  4.670936E-01
  4.679549E-01
  4.676204E-01
  4.683021E-01
  4.674674E-01
  4.676355E-01
  4.665824E-01
  4.669039E-01
  4.661873E-01
  4.667609E-01
  4.661092E-01
  4.667180E-01
  4.663560E-01
  4.676607E-01
  4.682352E-01
  4.702646E-01
  4.708537E-01
  4.719495E-01
  4.708662E-01
  4.701586E-01
  4.678698E-01
  4.670399E-01
  4.656975E-01
  4.663790E-01
  4.664048E-01
  4.677904E-01
  4.677705E-01
  4.686560E-01
  4.680728E-01
  4.685443E-01
  4.676762E-01
  4.678974E-01
  4.668179E-01
  4.669796E-01
  4.660743E-01
  4.665786E-01
  4.660130E-01
  4.667301E-01
  4.662739E-01
  4.671086E-01
  4.668249E-01
  4.677882E-01
  4.674267E-01
  4.680423E-01
  4.671781E-01
  4.673477E-01
  4.662546E-01
  4.664609E-01
  4.656640E-01
  4.664230E-01
  4.663832E-01
  4.678944E-01
  4.682480E-01
  4.695034E-01
  4.689827E-01
  4.691541E-01
  4.678863E-01
  4.679667E-01
  4.671554E-01
  4.678194E-01
  4.673140E-01
  4.678978E-01
  4.661294E-01
  4.670259E-01
  4.670593E-01
  4.676782E-01
  4.675861E-01
  4.681629E-01
  4.679213E-01
  4.681319E-01
  4.673775E-01
  4.671144E-01
  4.661073E-01
  4.659293E-01
  4.653924E-01
  4.660301E-01
  4.664870E-01
  4.680144E-01
  4.689740E-01
  4.704697E-01
  4.708832E-01
  4.714156E-01
  4.705424E-01
  4.696069E-01
  4.673994E-01
  4.657458E-01
  4.638390E-01
  4.634875E-01
  4.633293E-01
  4.643650E-01
  4.646915E-01
  4.653889E-01
  4.651516E-01
  4.656941E-01
  4.659046E-01
  4.671374E-01
  4.676736E-01
  4.684770E-01
  4.679313E-01
  4.675171E-01
  4.662103E-01
  4.658118E-01
  4.652013E-01
  4.657768E-01
  4.659613E-01
  4.668646E-01
  4.668722E-01
  4.672526E-01
  4.666329E-01
  4.665094E-01
  4.656673E-01
  4.656637E-01
  4.652357E-01
  4.657957E-01
  4.658897E-01
  4.667667E-01
  4.668963E-01
  4.675426E-01
  4.672386E-01
  4.673246E-01
  4.664377E-01
  4.660883E-01
  4.651224E-01
  4.651708E-01
  4.649735E-01
  4.658322E-01
  4.705971E-01
  4.702030E-01
  4.695101E-01
  4.685036E-01
  4.678041E-01
  4.670906E-01
  4.666829E-01
  4.661443E-01
  4.658493E-01
  4.654548E-01
  4.653726E-01
  4.652507E-01
  4.655046E-01
  4.658136E-01
  4.666023E-01
  4.674804E-01
  4.687215E-01
  4.697570E-01
  4.707187E-01
  4.709814E-01
  4.707468E-01
  4.696200E-01
  4.681786E-01
  4.664325E-01
  4.651958E-01
  4.643898E-01
  4.644388E-01
  4.647950E-01
  4.655985E-01
  4.663014E-01
  4.671926E-01
  4.678042E-01
  4.683630E-01
  4.683357E-01
  4.680707E-01
  4.673572E-01
  4.668592E-01
  4.664340E-01
  4.665247E-01
  4.666711E-01
  4.671351E-01
  4.674667E-01
  4.679837E-01
  4.681818E-01
  4.682393E-01
  4.676200E-01
  4.667331E-01
  4.654727E-01
  4.646248E-01
  4.641686E-01
  4.646341E-01
  4.655382E-01
  4.669338E-01
  4.679971E-01
  4.686809E-01
  4.683714E-01
  4.675282E-01
  4.661816E-01
  4.652915E-01
  4.649802E-01
  4.658065E-01
  4.671628E-01
  4.688920E-01
  4.700321E-01
  4.694948E-01
  4.692212E-01
  4.692598E-01
  4.679467E-01
  4.677252E-01
  4.668105E-01
  4.671690E-01
  4.665540E-01
  4.667677E-01
  4.657337E-01
  4.656043E-01
  4.646307E-01
  4.651079E-01
  4.651534E-01
  4.666794E-01
  4.673577E-01
  4.688626E-01
  4.689895E-01
  4.697723E-01
  4.692774E-01
  4.694981E-01
  4.682621E-01
  4.674835E-01
  4.653086E-01
  4.642071E-01
  4.626616E-01
  4.629209E-01
  4.628060E-01
  4.639589E-01
  4.640917E-01
  4.652380E-01
  4.655752E-01
  4.672162E-01
  4.679445E-01
  4.693505E-01
  4.690295E-01
  4.689131E-01
  4.672634E-01
  4.665902E-01
  4.653282E-01
  4.657126E-01
  4.656515E-01
  4.668652E-01
  4.669505E-01
  4.675993E-01
  4.666503E-01
  4.662289E-01
  4.646530E-01
  4.643760E-01
  4.637211E-01
  4.647814E-01
  4.653034E-01
  4.668748E-01
  4.670701E-01
  4.677076E-01
  4.668239E-01
  4.666487E-01
  4.653984E-01
  4.652853E-01
  4.644716E-01
  4.651563E-01
  4.654253E-01
  4.671828E-01
  4.680319E-01
  4.730912E-01
  4.713977E-01
  4.709628E-01
  4.682834E-01
  4.677668E-01
  4.656302E-01
  4.658661E-01
  4.643875E-01
  4.650851E-01
  4.639196E-01
  4.648826E-01
  4.640208E-01
  4.653597E-01
  4.649046E-01
  4.665705E-01
  4.662448E-01
  4.678083E-01
  4.672356E-01
  4.685440E-01
  4.677643E-01
  4.688297E-01
  4.676373E-01
  4.681099E-01
  4.663428E-01
  4.665564E-01
  4.650191E-01
  4.658666E-01
  4.651066E-01
  4.666506E-01
  4.664403E-01
  4.683940E-01
  4.683619E-01
  4.700494E-01
  4.691746E-01
  4.696264E-01
  4.676182E-01
  4.675494E-01
  4.658143E-01
  4.665751E-01
  4.657979E-01
  4.673280E-01
  4.670260E-01
  4.687054E-01
  4.681191E-01
  4.689564E-01
  4.670612E-01
  4.665715E-01
  4.639782E-01
  4.638796E-01
  4.627260E-01
  4.645712E-01
  4.651081E-01
  4.677831E-01
  4.680575E-01
  4.695529E-01
  4.682068E-01
  4.682490E-01
  4.661654E-01
  4.664915E-01
  4.656535E-01
  4.677513E-01
  4.685276E-01
  4.714031E-01
  4.717431E-01
  4.704939E-01
  4.690563E-01
  4.696992E-01
  4.672710E-01
  4.675884E-01
  4.655089E-01
  4.664673E-01
  4.648700E-01
  4.659349E-01
  4.641751E-01
  4.651138E-01
  4.635536E-01
  4.651044E-01
  4.643677E-01
  4.665436E-01
  4.658610E-01
  4.674720E-01
  4.659766E-01
  4.670767E-01
  4.656692E-01
  4.672395E-01
  4.661310E-01
  4.674298E-01
  4.656042E-01
  4.662915E-01
  4.644529E-01
  4.657369E-01
  4.646614E-01
  4.664105E-01
  4.654292E-01
  4.672200E-01
  4.665471E-01
  4.688494E-01
  4.684398E-01
  4.702963E-01
  4.686773E-01
  4.690155E-01
  4.662626E-01
  4.663718E-01
  4.643766E-01
  4.658734E-01
  4.652976E-01
  4.676629E-01
  4.670536E-01
  4.684925E-01
  4.664439E-01
  4.665499E-01
  4.638800E-01
  4.643844E-01
  4.629770E-01
  4.650521E-01
  4.648506E-01
  4.673319E-01
  4.667561E-01
  4.684882E-01
  4.672720E-01
  4.687079E-01
  4.674308E-01
  4.687925E-01
  4.673451E-01
  4.686289E-01
  4.674457E-01
  4.693180E-01
  4.686583E-01
  4.724403E-01
  4.701010E-01
  4.704922E-01
  4.675191E-01
  4.677300E-01
  4.649701E-01
  4.656280E-01
  4.634038E-01
  4.646104E-01
  4.629289E-01
  4.646665E-01
  4.634745E-01
  4.655884E-01
  4.645574E-01
  4.665350E-01
  4.650882E-01
  4.665407E-01
  4.647356E-01
  4.662244E-01
  4.648618E-01
  4.669565E-01
  4.660186E-01
  4.681518E-01
  4.669326E-01
  4.687143E-01
  4.672850E-01
  4.690297E-01
  4.676487E-01
  4.694788E-01
  4.682625E-01
  4.703372E-01
  4.692538E-01
  4.710299E-01
  4.690575E-01
  4.696041E-01
  4.666446E-01
  4.669770E-01
  4.646866E-01
  4.662288E-01
  4.651880E-01
  4.676793E-01
  4.671726E-01
  4.697316E-01
  4.687157E-01
  4.701261E-01
  4.675399E-01
  4.675227E-01
  4.643088E-01
  4.648045E-01
  4.630384E-01
  4.652992E-01
  4.649616E-01
  4.679476E-01
  4.676297E-01
  4.701570E-01
  4.691749E-01
  4.710462E-01
  4.695577E-01
  4.711637E-01
  4.696922E-01
  4.715546E-01
  4.704201E-01
  4.724522E-01
  4.710929E-01
  4.686249E-01
  4.674368E-01
  4.686945E-01
  4.669629E-01
  4.677714E-01
  4.659477E-01
  4.669352E-01
  4.652961E-01
  4.662939E-01
  4.645370E-01
  4.655044E-01
  4.640092E-01
  4.655496E-01
  4.647094E-01
  4.666127E-01
  4.655690E-01
  4.667698E-01
  4.649645E-01
  4.658845E-01
  4.645092E-01
  4.662825E-01
  4.655895E-01
  4.674518E-01
  4.663342E-01
  4.677219E-01
  4.664770E-01
  4.680656E-01
  4.669919E-01
  4.684300E-01
  4.669734E-01
  4.681781E-01
  4.669174E-01
  4.686196E-01
  4.676983E-01
  4.691686E-01
  4.674170E-01
  4.678528E-01
  4.654238E-01
  4.659433E-01
  4.644078E-01
  4.663115E-01
  4.660997E-01
  4.687057E-01
  4.682487E-01
  4.697405E-01
  4.677743E-01
  4.680149E-01
  4.655631E-01
  4.661971E-01