# vtk DataFile Version 2.0
title
ASCII
DATASET STRUCTURED_GRID
DIMENSIONS   64   64    1
POINTS   4096  float
  0.000000E+00  0.000000E+00  0.000000E+00
  0.000000E+00  3.906250E-01  0.000000E+00
  0.000000E+00  7.812500E-01  0.000000E+00
  0.000000E+00  1.171875E+00  0.000000E+00
  0.000000E+00  1.562500E+00  0.000000E+00
  0.000000E+00  1.953125E+00  0.000000E+00
  0.000000E+00  2.343750E+00  0.000000E+00
  0.000000E+00  2.734375E+00  0.000000E+00
  0.000000E+00  3.125000E+00  0.000000E+00
  0.000000E+00  3.515625E+00  0.000000E+00
  0.000000E+00  3.906250E+00  0.000000E+00
  0.000000E+00  4.296875E+00  0.000000E+00
  0.000000E+00  4.687500E+00  0.000000E+00
  0.000000E+00  5.078125E+00  0.000000E+00
  0.000000E+00  5.468750E+00  0.000000E+00
  0.000000E+00  5.859375E+00  0.000000E+00
  0.000000E+00  6.250000E+00  0.000000E+00
  0.000000E+00  6.640625E+00  0.000000E+00
  0.000000E+00  7.031250E+00  0.000000E+00
  0.000000E+00  7.421875E+00  0.000000E+00
  0.000000E+00  7.812500E+00  0.000000E+00
  0.000000E+00  8.203125E+00  0.000000E+00
  0.000000E+00  8.593750E+00  0.000000E+00
  0.000000E+00  8.984375E+00  0.000000E+00
  0.000000E+00  9.375000E+00  0.000000E+00
  0.000000E+00  9.765625E+00  0.000000E+00
  0.000000E+00  1.015625E+01  0.000000E+00
  0.000000E+00  1.054688E+01  0.000000E+00
  0.000000E+00  1.093750E+01  0.000000E+00
  0.000000E+00  1.132812E+01  0.000000E+00
  0.000000E+00  1.171875E+01  0.000000E+00
  0.000000E+00  1.210938E+01  0.000000E+00
  0.000000E+00  1.250000E+01  0.000000E+00
  0.000000E+00  1.289062E+01  0.000000E+00
  0.000000E+00  1.328125E+01  0.000000E+00
  0.000000E+00  1.367188E+01  0.000000E+00
  0.000000E+00  1.406250E+01  0.000000E+00
  0.000000E+00  1.445312E+01  0.000000E+00
  0.000000E+00  1.484375E+01  0.000000E+00
  0.000000E+00  1.523438E+01  0.000000E+00
  0.000000E+00  1.562500E+01  0.000000E+00
  0.000000E+00  1.601562E+01  0.000000E+00
  0.000000E+00  1.640625E+01  0.000000E+00
  0.000000E+00  1.679688E+01  0.000000E+00
  0.000000E+00  1.718750E+01  0.000000E+00
  0.000000E+00  1.757812E+01  0.000000E+00
  0.000000E+00  1.796875E+01  0.000000E+00
  0.000000E+00  1.835938E+01  0.000000E+00
  0.000000E+00  1.875000E+01  0.000000E+00
  0.000000E+00  1.914062E+01  0.000000E+00
  0.000000E+00  1.953125E+01  0.000000E+00
  0.000000E+00  1.992188E+01  0.000000E+00
  0.000000E+00  2.031250E+01  0.000000E+00
  0.000000E+00  2.070312E+01  0.000000E+00
  0.000000E+00  2.109375E+01  0.000000E+00
  0.000000E+00  2.148438E+01  0.000000E+00
  0.000000E+00  2.187500E+01  0.000000E+00
  0.000000E+00  2.226562E+01  0.000000E+00
  0.000000E+00  2.265625E+01  0.000000E+00
  0.000000E+00  2.304688E+01  0.000000E+00
  0.000000E+00  2.343750E+01  0.000000E+00
  0.000000E+00  2.382812E+01  0.000000E+00
  0.000000E+00  2.421875E+01  0.000000E+00
  0.000000E+00  2.460938E+01  0.000000E+00
  3.906250E-01  0.000000E+00  0.000000E+00
  3.906250E-01  3.906250E-01  0.000000E+00
  3.906250E-01  7.812500E-01  0.000000E+00
  3.906250E-01  1.171875E+00  0.000000E+00
  3.906250E-01  1.562500E+00  0.000000E+00
  3.906250E-01  1.953125E+00  0.000000E+00
  3.906250E-01  2.343750E+00  0.000000E+00
  3.906250E-01  2.734375E+00  0.000000E+00
  3.906250E-01  3.125000E+00  0.000000E+00
  3.906250E-01  3.515625E+00  0.000000E+00
  3.906250E-01  3.906250E+00  0.000000E+00
  3.906250E-01  4.296875E+00  0.000000E+00
  3.906250E-01  4.687500E+00  0.000000E+00
  3.906250E-01  5.078125E+00  0.000000E+00
  3.906250E-01  5.468750E+00  0.000000E+00
  3.906250E-01  5.859375E+00  0.000000E+00
  3.906250E-01  6.250000E+00  0.000000E+00
  3.906250E-01  6.640625E+00  0.000000E+00
  3.906250E-01  7.031250E+00  0.000000E+00
  3.906250E-01  7.421875E+00  0.000000E+00
  3.906250E-01  7.812500E+00  0.000000E+00
  3.906250E-01  8.203125E+00  0.000000E+00
  3.906250E-01  8.593750E+00  0.000000E+00
  3.906250E-01  8.984375E+00  0.000000E+00
  3.906250E-01  9.375000E+00  0.000000E+00
  3.906250E-01  9.765625E+00  0.000000E+00
  3.906250E-01  1.015625E+01  0.000000E+00
  3.906250E-01  1.054688E+01  0.000000E+00
  3.906250E-01  1.093750E+01  0.000000E+00
  3.906250E-01  1.132812E+01  0.000000E+00
  3.906250E-01  1.171875E+01  0.000000E+00
  3.906250E-01  1.210938E+01  0.000000E+00
  3.906250E-01  1.250000E+01  0.000000E+00
  3.906250E-01  1.289062E+01  0.000000E+00
  3.906250E-01  1.328125E+01  0.000000E+00
  3.906250E-01  1.367188E+01  0.000000E+00
  3.906250E-01  1.406250E+01  0.000000E+00
  3.906250E-01  1.445312E+01  0.000000E+00
  3.906250E-01  1.484375E+01  0.000000E+00
  3.906250E-01  1.523438E+01  0.000000E+00
  3.906250E-01  1.562500E+01  0.000000E+00
  3.906250E-01  1.601562E+01  0.000000E+00
  3.906250E-01  1.640625E+01  0.000000E+00
  3.906250E-01  1.679688E+01  0.000000E+00
  3.906250E-01  1.718750E+01  0.000000E+00
  3.906250E-01  1.757812E+01  0.000000E+00
  3.906250E-01  1.796875E+01  0.000000E+00
  3.906250E-01  1.835938E+01  0.000000E+00
  3.906250E-01  1.875000E+01  0.000000E+00
  3.906250E-01  1.914062E+01  0.000000E+00
  3.906250E-01  1.953125E+01  0.000000E+00
  3.906250E-01  1.992188E+01  0.000000E+00
  3.906250E-01  2.031250E+01  0.000000E+00
  3.906250E-01  2.070312E+01  0.000000E+00
  3.906250E-01  2.109375E+01  0.000000E+00
  3.906250E-01  2.148438E+01  0.000000E+00
  3.906250E-01  2.187500E+01  0.000000E+00
  3.906250E-01  2.226562E+01  0.000000E+00
  3.906250E-01  2.265625E+01  0.000000E+00
  3.906250E-01  2.304688E+01  0.000000E+00
  3.906250E-01  2.343750E+01  0.000000E+00
  3.906250E-01  2.382812E+01  0.000000E+00
  3.906250E-01  2.421875E+01  0.000000E+00
  3.906250E-01  2.460938E+01  0.000000E+00
  7.812500E-01  0.000000E+00  0.000000E+00
  7.812500E-01  3.906250E-01  0.000000E+00
  7.812500E-01  7.812500E-01  0.000000E+00
  7.812500E-01  1.171875E+00  0.000000E+00
  7.812500E-01  1.562500E+00  0.000000E+00
  7.812500E-01  1.953125E+00  0.000000E+00
  7.812500E-01  2.343750E+00  0.000000E+00
  7.812500E-01  2.734375E+00  0.000000E+00
  7.812500E-01  3.125000E+00  0.000000E+00
  7.812500E-01  3.515625E+00  0.000000E+00
  7.812500E-01  3.906250E+00  0.000000E+00
  7.812500E-01  4.296875E+00  0.000000E+00
  7.812500E-01  4.687500E+00  0.000000E+00
  7.812500E-01  5.078125E+00  0.000000E+00
  7.812500E-01  5.468750E+00  0.000000E+00
  7.812500E-01  5.859375E+00  0.000000E+00
  7.812500E-01  6.250000E+00  0.000000E+00
  7.812500E-01  6.640625E+00  0.000000E+00
  7.812500E-01  7.031250E+00  0.000000E+00
  7.812500E-01  7.421875E+00  0.000000E+00
  7.812500E-01  7.812500E+00  0.000000E+00
  7.812500E-01  8.203125E+00  0.000000E+00
  7.812500E-01  8.593750E+00  0.000000E+00
  7.812500E-01  8.984375E+00  0.000000E+00
  7.812500E-01  9.375000E+00  0.000000E+00
  7.812500E-01  9.765625E+00  0.000000E+00
  7.812500E-01  1.015625E+01  0.000000E+00
  7.812500E-01  1.054688E+01  0.000000E+00
  7.812500E-01  1.093750E+01  0.000000E+00
  7.812500E-01  1.132812E+01  0.000000E+00
  7.812500E-01  1.171875E+01  0.000000E+00
  7.812500E-01  1.210938E+01  0.000000E+00
  7.812500E-01  1.250000E+01  0.000000E+00
  7.812500E-01  1.289062E+01  0.000000E+00
  7.812500E-01  1.328125E+01  0.000000E+00
  7.812500E-01  1.367188E+01  0.000000E+00
  7.812500E-01  1.406250E+01  0.000000E+00
  7.812500E-01  1.445312E+01  0.000000E+00
  7.812500E-01  1.484375E+01  0.000000E+00
  7.812500E-01  1.523438E+01  0.000000E+00
  7.812500E-01  1.562500E+01  0.000000E+00
  7.812500E-01  1.601562E+01  0.000000E+00
  7.812500E-01  1.640625E+01  0.000000E+00
  7.812500E-01  1.679688E+01  0.000000E+00
  7.812500E-01  1.718750E+01  0.000000E+00
  7.812500E-01  1.757812E+01  0.000000E+00
  7.812500E-01  1.796875E+01  0.000000E+00
  7.812500E-01  1.835938E+01  0.000000E+00
  7.812500E-01  1.875000E+01  0.000000E+00
  7.812500E-01  1.914062E+01  0.000000E+00
  7.812500E-01  1.953125E+01  0.000000E+00
  7.812500E-01  1.992188E+01  0.000000E+00
  7.812500E-01  2.031250E+01  0.000000E+00
  7.812500E-01  2.070312E+01  0.000000E+00
  7.812500E-01  2.109375E+01  0.000000E+00
  7.812500E-01  2.148438E+01  0.000000E+00
  7.812500E-01  2.187500E+01  0.000000E+00
  7.812500E-01  2.226562E+01  0.000000E+00
  7.812500E-01  2.265625E+01  0.000000E+00
  7.812500E-01  2.304688E+01  0.000000E+00
  7.812500E-01  2.343750E+01  0.000000E+00
  7.812500E-01  2.382812E+01  0.000000E+00
  7.812500E-01  2.421875E+01  0.000000E+00
  7.812500E-01  2.460938E+01  0.000000E+00
  1.171875E+00  0.000000E+00  0.000000E+00
  1.171875E+00  3.906250E-01  0.000000E+00
  1.171875E+00  7.812500E-01  0.000000E+00
  1.171875E+00  1.171875E+00  0.000000E+00
  1.171875E+00  1.562500E+00  0.000000E+00
  1.171875E+00  1.953125E+00  0.000000E+00
  1.171875E+00  2.343750E+00  0.000000E+00
  1.171875E+00  2.734375E+00  0.000000E+00
  1.171875E+00  3.125000E+00  0.000000E+00
  1.171875E+00  3.515625E+00  0.000000E+00
  1.171875E+00  3.906250E+00  0.000000E+00
  1.171875E+00  4.296875E+00  0.000000E+00
  1.171875E+00  4.687500E+00  0.000000E+00
  1.171875E+00  5.078125E+00  0.000000E+00
  1.171875E+00  5.468750E+00  0.000000E+00
  1.171875E+00  5.859375E+00  0.000000E+00
  1.171875E+00  6.250000E+00  0.000000E+00
  1.171875E+00  6.640625E+00  0.000000E+00
  1.171875E+00  7.031250E+00  0.000000E+00
  1.171875E+00  7.421875E+00  0.000000E+00
  1.171875E+00  7.812500E+00  0.000000E+00
  1.171875E+00  8.203125E+00  0.000000E+00
  1.171875E+00  8.593750E+00  0.000000E+00
  1.171875E+00  8.984375E+00  0.000000E+00
  1.171875E+00  9.375000E+00  0.000000E+00
  1.171875E+00  9.765625E+00  0.000000E+00
  1.171875E+00  1.015625E+01  0.000000E+00
  1.171875E+00  1.054688E+01  0.000000E+00
  1.171875E+00  1.093750E+01  0.000000E+00
  1.171875E+00  1.132812E+01  0.000000E+00
  1.171875E+00  1.171875E+01  0.000000E+00
  1.171875E+00  1.210938E+01  0.000000E+00
  1.171875E+00  1.250000E+01  0.000000E+00
  1.171875E+00  1.289062E+01  0.000000E+00
  1.171875E+00  1.328125E+01  0.000000E+00
  1.171875E+00  1.367188E+01  0.000000E+00
  1.171875E+00  1.406250E+01  0.000000E+00
  1.171875E+00  1.445312E+01  0.000000E+00
[...]
POINT_DATA   4096
SCALARS CON  float  1
LOOKUP_TABLE default
  4.695123E-01
  4.684870E-01
  4.709389E-01
  4.694914E-01
  4.712426E-01
  4.691138E-01
  4.704336E-01
  4.682010E-01
  4.696728E-01
  4.677029E-01
  4.694249E-01
  4.676519E-01
  4.695543E-01
  4.680036E-01
  4.701844E-01
  4.689044E-01
  4.712250E-01
  4.698309E-01
  4.717274E-01
  4.696485E-01
  4.707482E-01
  4.679616E-01
  4.686272E-01
  4.657865E-01
  4.667720E-01
  4.645125E-01
  4.661652E-01
  4.644853E-01
  4.665212E-01
  4.650160E-01
  4.670905E-01
  4.655940E-01
  4.677223E-01
  4.663247E-01
  4.685214E-01
  4.670552E-01
  4.689733E-01
  4.670280E-01
  4.683693E-01
  4.659137E-01
  4.669791E-01
  4.645962E-01
  4.661058E-01
  4.644598E-01
  4.668338E-01
  4.659637E-01
  4.688128E-01
  4.679740E-01
  4.703954E-01
  4.688099E-01
  4.704302E-01
  4.682882E-01
  4.698065E-01
  4.680361E-01
  4.702033E-01
  4.690224E-01
  4.713935E-01
  4.698719E-01
  4.714523E-01
  4.690052E-01
  4.699212E-01
  4.673657E-01
  4.687863E-01
  4.671430E-01
  4.713366E-01
  4.707058E-01
  4.719749E-01
  4.705936E-01
  4.709984E-01
  4.689642E-01
  4.691548E-01
  4.673872E-01
  4.681825E-01
  4.671128E-01
  4.684722E-01
  4.677206E-01
  4.691810E-01
  4.684337E-01
  4.699212E-01
  4.692624E-01
  4.708342E-01
  4.701276E-01
  4.714097E-01
  4.701528E-01
  4.707235E-01
  4.687806E-01
  4.688928E-01
  4.668599E-01
  4.672808E-01
  4.658669E-01
  4.670426E-01
  4.663159E-01
  4.679396E-01
  4.673300E-01
  4.687512E-01
  4.677239E-01
  4.686705E-01
  4.672662E-01
  4.680283E-01
  4.666367E-01
  4.675305E-01
  4.662731E-01
  4.672104E-01
  4.658856E-01
  4.667103E-01
  4.653489E-01
  4.663272E-01
  4.653525E-01
  4.668867E-01
  4.664796E-01
  4.684022E-01
  4.680641E-01
  4.697176E-01
  4.688956E-01
  4.700710E-01
  4.689975E-01
  4.702629E-01
  4.695661E-01
  4.712862E-01
  4.708536E-01
  4.724492E-01
  4.714789E-01
  4.722966E-01
  4.706075E-01
  4.710570E-01
  4.695005E-01
  4.705201E-01
  4.697169E-01
  4.680499E-01
  4.687200E-01
  4.698057E-01
  4.700064E-01
  4.702385E-01
  4.695724E-01
  4.692392E-01
  4.684466E-01
  4.683633E-01
  4.680086E-01
  4.683533E-01
  4.683050E-01
  4.688366E-01
  4.689268E-01
  4.696115E-01
  4.698616E-01
  4.706242E-01
  4.707460E-01
  4.710868E-01
  4.705045E-01
  4.699852E-01
  4.685935E-01
  4.675322E-01
  4.660152E-01
  4.652746E-01
  4.644263E-01
  4.645161E-01
  4.644543E-01
  4.651328E-01
  4.654026E-01
  4.661905E-01
  4.664345E-01
  4.671412E-01
  4.672760E-01
  4.678132E-01
  4.676588E-01
  4.677525E-01
  4.670341E-01
  4.665556E-01
  4.654179E-01
  4.648270E-01
  4.639734E-01
  4.640508E-01
  4.641282E-01
  4.651934E-01
  4.660750E-01
  4.675527E-01
  4.683472E-01
  4.692779E-01
  4.692592E-01
  4.694060E-01
  4.689260E-01
  4.691040E-01
  4.691079E-01
  4.699705E-01
  4.704903E-01
  4.713744E-01
  4.712965E-01
  4.711157E-01
  4.698868E-01
  4.689221E-01
  4.676036E-01
  4.672974E-01
  4.671382E-01
  4.694733E-01
  4.705459E-01
  4.703490E-01
  4.706386E-01
  4.694830E-01
  4.690051E-01
  4.675549E-01
  4.673409E-01
  4.665810E-01
  4.672093E-01
  4.671607E-01
  4.682007E-01
  4.682632E-01
  4.692421E-01
  4.692291E-01
  4.702028E-01
  4.702175E-01
  4.711225E-01
  4.708363E-01
  4.711573E-01
  4.700858E-01
  4.696143E-01
  4.679751E-01
  4.673393E-01
  4.659985E-01
  4.660461E-01
  4.655896E-01
  4.664930E-01
  4.666584E-01
  4.678239E-01
  4.678737E-01
  4.686326E-01
  4.681409E-01
  4.683924E-01
  4.675507E-01
  4.676493E-01
  4.668070E-01
  4.669660E-01
  4.661643E-01
  4.663221E-01
  4.655275E-01
  4.657925E-01
  4.652807E-01
  4.660072E-01
  4.660435E-01
  4.672440E-01
  4.675164E-01
  4.686262E-01
  4.685192E-01
  4.691236E-01
  4.686113E-01
  4.691005E-01
  4.688245E-01
  4.697940E-01
  4.700017E-01
  4.711878E-01
  4.711702E-01
  4.716999E-01
  4.708012E-01
  4.705476E-01
  4.692671E-01
  4.691867E-01
  4.685660E-01
  4.693627E-01
  4.660457E-01
  4.681703E-01
  4.679224E-01
  4.696062E-01
  4.685088E-01
  4.693055E-01
  4.676161E-01
  4.682784E-01
  4.668672E-01
  4.680283E-01
  4.671153E-01
  4.686323E-01
  4.679148E-01
  4.695397E-01
  4.689250E-01
  4.706642E-01
  4.700997E-01
  4.716942E-01
  4.706824E-01
  4.715175E-01
  4.695552E-01
  4.694715E-01
  4.668693E-01
  4.666049E-01
  4.643292E-01
  4.648004E-01
  4.634672E-01
  4.648583E-01
  4.642442E-01
  4.660749E-01
  4.656410E-01
  4.674700E-01
  4.669287E-01
  4.685768E-01
  4.677628E-01
  4.690083E-01
  4.676531E-01
  4.682757E-01
  4.663424E-01
  4.665928E-01
  4.646302E-01
  4.652519E-01
  4.640086E-01
  4.655404E-01
  4.651760E-01
  4.673296E-01
  4.671664E-01
  4.690535E-01
  4.682495E-01
  4.693391E-01
  4.678599E-01
  4.686406E-01
  4.673303E-01
  4.686771E-01
  4.680708E-01
  4.699151E-01
  4.693132E-01
  4.705739E-01
  4.689577E-01
  4.691359E-01
  4.667945E-01
  4.669132E-01
  4.652330E-01
  4.665040E-01
  4.676072E-01
  4.696741E-01
  4.684861E-01
  4.698986E-01
  4.678809E-01
  4.686089E-01
  4.663136E-01
  4.672666E-01
  4.655954E-01
  4.673272E-01
  4.663247E-01
  4.684494E-01
  4.675564E-01
  4.696291E-01
  4.686770E-01
  4.707648E-01
  4.698575E-01
  4.718767E-01
  4.706371E-01
  4.720038E-01
  4.698836E-01
  4.703616E-01
  4.676071E-01
  4.679064E-01
  4.654924E-01
  4.665584E-01
  4.651277E-01
  4.671403E-01
  4.663999E-01
  4.687182E-01
  4.678848E-01
  4.698011E-01
  4.684125E-01
  4.697868E-01
  4.679929E-01
  4.691462E-01
  4.672867E-01
  4.684583E-01
  4.666352E-01
  4.678417E-01
  4.660862E-01
  4.674520E-01
  4.659834E-01
  4.677358E-01
  4.666552E-01
  4.686621E-01
  4.675929E-01
  4.693418E-01
  4.678287E-01
  4.691193E-01
  4.673262E-01
  4.686462E-01
  4.671977E-01
  4.690438E-01
  4.680775E-01
  4.701367E-01
  4.689871E-01
  4.704981E-01
  4.686214E-01
  4.694972E-01
  4.673244E-01
  4.683657E-01
  4.667642E-01
  4.685637E-01
  4.645275E-01
  4.670856E-01
  4.663118E-01
  4.686736E-01
  4.673044E-01
  4.689552E-01
  4.670388E-01
  4.684672E-01
  4.666512E-01
  4.683757E-01
  4.668899E-01
  4.688731E-01
  4.675644E-01
  4.697009E-01
  4.685773E-01
  4.709168E-01
  4.699109E-01
  4.721318E-01
  4.706553E-01
  4.720529E-01
  4.695458E-01
  4.699609E-01
  4.667950E-01
  4.670667E-01
  4.643088E-01
  4.654122E-01
  4.636732E-01
  4.657306E-01
  4.647002E-01
  4.671576E-01
  4.662619E-01
  4.686832E-01
  4.676612E-01
  4.698899E-01
  4.685782E-01
  4.703765E-01
  4.684906E-01
  4.696431E-01
  4.671823E-01
  4.679964E-01
  4.655575E-01
  4.667811E-01
  4.650501E-01
  4.670971E-01
  4.660827E-01
  4.685458E-01
  4.675387E-01
  4.696098E-01
  4.679392E-01
  4.692872E-01
  4.670694E-01
  4.682293E-01
  4.662454E-01
  4.679699E-01
  4.666542E-01
  4.688637E-01
  4.676133E-01
  4.693851E-01
  4.673135E-01
  4.681711E-01
  4.654462E-01
  4.661864E-01
  4.639598E-01
  4.656602E-01
  4.665293E-01
  4.685077E-01
  4.672554E-01
  4.689226E-01
  4.671906E-01
  4.684137E-01
  4.664591E-01
  4.677676E-01
  4.661587E-01
  4.679224E-01
  4.667066E-01
  4.686989E-01
  4.675587E-01
  4.695734E-01
  4.685104E-01
  4.706860E-01
  4.697801E-01
  4.719421E-01
  4.707002E-01
  4.721672E-01
  4.699965E-01
  4.705549E-01
  4.677807E-01
  4.682413E-01
  4.659130E-01
  4.672305E-01
  4.659230E-01
  4.681540E-01
  4.674430E-01
  4.698572E-01
  4.689414E-01
  4.708812E-01
  4.693843E-01
  4.707894E-01
  4.689050E-01
  4.700995E-01
  4.681494E-01
  4.693622E-01
  4.674643E-01
  4.687506E-01
  4.669717E-01
  4.684552E-01
  4.669559E-01
  4.687536E-01
  4.675095E-01
  4.694018E-01
  4.680326E-01
  4.696008E-01
  4.678129E-01
  4.690222E-01
  4.670792E-01
  4.684100E-01
  4.668316E-01
  4.686377E-01
  4.674625E-01
  4.694373E-01
  4.681184E-01
  4.696750E-01
  4.678048E-01
  4.688694E-01
  4.667395E-01
  4.678688E-01
  4.661059E-01
  4.677742E-01
  4.638756E-01
  4.659794E-01
  4.654822E-01
  4.677799E-01
  4.670790E-01
  4.689302E-01
  4.677330E-01
  4.691862E-01
  4.677497E-01
  4.691041E-01
  4.676612E-01
  4.690751E-01
  4.677714E-01
  4.694352E-01
  4.684885E-01
  4.705368E-01
  4.698486E-01
  4.718555E-01
  4.707152E-01
  4.718842E-01
  4.697009E-01
  4.699072E-01
  4.671300E-01
  4.672918E-01
  4.650232E-01
  4.660770E-01
  4.648137E-01
  4.667246E-01
  4.660099E-01
  4.681410E-01
  4.674093E-01
  4.694141E-01
  4.685344E-01
  4.703755E-01
  4.692560E-01
  4.707121E-01
  4.690498E-01
  4.698850E-01
  4.676803E-01
  4.682249E-01
  4.660973E-01
  4.670918E-01
  4.656722E-01
  4.674361E-01
  4.666348E-01
  4.687051E-01
  4.678346E-01
  4.695056E-01
  4.680423E-01
  4.691134E-01
  4.672271E-01
  4.681807E-01
  4.665136E-01
  4.679401E-01
  4.668190E-01
  4.686408E-01
  4.675766E-01
  4.690408E-01
  4.672823E-01
  4.679330E-01
  4.655267E-01
  4.659430E-01
  4.638294E-01
  4.649987E-01
  4.662386E-01
  4.676051E-01
  4.667868E-01
  4.682047E-01
  4.672724E-01
  4.684921E-01
  4.673773E-01
  4.685014E-01
  4.673897E-01
  4.685733E-01
  4.675216E-01
  4.687442E-01
  4.677455E-01
  4.691043E-01
  4.683688E-01
  4.700787E-01
  4.696461E-01
  4.714258E-01
  4.706887E-01
  4.717804E-01
  4.701277E-01
  4.703511E-01
  4.681653E-01
  4.683741E-01
  4.666989E-01
  4.677764E-01
  4.670581E-01
  4.689105E-01
  4.686023E-01
  4.704481E-01
  4.697877E-01
  4.710834E-01
  4.698405E-01
  4.706532E-01
  4.690963E-01
  4.697677E-01
  4.682001E-01
  4.689362E-01
  4.674705E-01
  4.683385E-01
  4.670498E-01
  4.681527E-01
  4.671407E-01
  4.685075E-01
  4.676683E-01
  4.690501E-01
  4.680500E-01
  4.691435E-01
  4.678319E-01
  4.687131E-01
  4.673788E-01
  4.684467E-01
  4.674462E-01
  4.688725E-01
  4.681180E-01
  4.695774E-01
  4.686156E-01
  4.696793E-01
  4.682443E-01
  4.688879E-01
  4.671968E-01
  4.678109E-01
  4.663174E-01
  4.672978E-01
  4.638965E-01
  4.654102E-01
  4.653326E-01
  4.672980E-01
  4.672921E-01
  4.690026E-01
  4.685314E-01
  4.696952E-01
  4.687024E-01
  4.694439E-01
  4.681804E-01
  4.688462E-01
  4.677337E-01
  4.687754E-01
  4.681989E-01
  4.697960E-01
  4.696020E-01
  4.712259E-01
  4.706079E-01
  4.714078E-01
  4.697676E-01
  4.696415E-01
  4.674534E-01
  4.673201E-01
  4.656470E-01
  4.663625E-01
  4.655959E-01
  4.670249E-01
  4.666457E-01
  4.681517E-01
  4.676616E-01
  4.690123E-01
  4.684045E-01
  4.696594E-01
  4.688909E-01
  4.698328E-01
  4.685826E-01
  4.689613E-01
  4.672316E-01
  4.673873E-01
  4.657932E-01
  4.664258E-01
  4.655179E-01
  4.668494E-01
  4.664636E-01
  4.680200E-01
  4.675399E-01
  4.687534E-01
  4.678129E-01
  4.685976E-01
  4.673867E-01
  4.681323E-01
  4.671140E-01
  4.682075E-01
  4.675551E-01
  4.688717E-01
  4.681676E-01
  4.691076E-01
  4.677640E-01
  4.679695E-01
  4.660218E-01
  4.659606E-01
  4.641991E-01
  4.647568E-01
  4.665738E-01
  4.674613E-01
  4.669492E-01
  4.679826E-01
  4.674973E-01
  4.684496E-01
  4.678122E-01
  4.685867E-01
  4.677823E-01
  4.684218E-01
  4.675308E-01
  4.681604E-01
  4.673794E-01
  4.682758E-01
  4.679099E-01
  4.692837E-01
  4.692985E-01
  4.707756E-01
  4.704958E-01
  4.712923E-01
  4.701112E-01
  4.700560E-01
  4.683459E-01
  4.682523E-01
  4.669936E-01
  4.676769E-01
  4.672637E-01
  4.686109E-01
  4.685187E-01
  4.698096E-01
  4.693620E-01
  4.701406E-01
  4.691735E-01
  4.695375E-01
  4.683153E-01
  4.685848E-01
  4.673957E-01
  4.677837E-01
  4.667656E-01
  4.673605E-01
  4.665767E-01
  4.674176E-01
  4.668580E-01
  4.678522E-01
  4.673290E-01
  4.682254E-01
  4.674999E-01
  4.681651E-01
  4.672767E-01
  4.679273E-01
  4.671996E-01
  4.681438E-01
  4.677427E-01
  4.689256E-01
  4.685799E-01
  4.696009E-01
  4.689140E-01
  4.695067E-01
  4.684138E-01
  4.687121E-01
  4.674838E-01
  4.678097E-01
  4.667457E-01
  4.673311E-01
  4.645919E-01
  4.657167E-01
  4.658294E-01
  4.673152E-01
  4.674929E-01
  4.687652E-01
  4.685184E-01
  4.692504E-01
  4.684521E-01
  4.687235E-01
  4.676464E-01
  4.678894E-01
  4.670630E-01
  4.678043E-01
  4.676200E-01
  4.689794E-01
  4.691937E-01
  4.705681E-01
  4.703444E-01
  4.708940E-01
  4.696569E-01
  4.692788E-01
  4.674588E-01
  4.669942E-01
  4.655731E-01
  4.658301E-01
  4.652101E-01
  4.661244E-01
  4.658981E-01
  4.669527E-01
  4.667146E-01
  4.677195E-01
  4.674485E-01
  4.684058E-01
  4.679871E-01
  4.686274E-01
  4.677325E-01
  4.678452E-01
  4.665395E-01
  4.665111E-01
  4.653993E-01
  4.658446E-01
  4.653335E-01
  4.663198E-01
  4.661418E-01
  4.671933E-01
  4.668485E-01
  4.676041E-01
  4.669584E-01
  4.675108E-01
  4.668146E-01
  4.674707E-01
  4.669871E-01
  4.678850E-01
  4.675765E-01
  4.684943E-01
  4.679954E-01
  4.685155E-01
  4.674835E-01
  4.674647E-01
  4.660410E-01
  4.659059E-01
  4.647007E-01
  4.650869E-01
  4.676719E-01
  4.681566E-01
  4.677915E-01
  4.681689E-01
  4.676980E-01
  4.679764E-01
  4.674145E-01
  4.676138E-01
  4.669934E-01
  4.671690E-01
  4.665816E-01
  4.668765E-01
  4.665250E-01
  4.671843E-01
  4.672939E-01
  4.684199E-01
  4.688607E-01
  4.700353E-01
  4.701521E-01
  4.706512E-01
  4.698888E-01
  4.695391E-01
  4.681983E-01
  4.676988E-01
  4.666564E-01
  4.667845E-01
  4.664929E-01
  4.672795E-01
  4.673989E-01
  4.682888E-01
  4.682349E-01
  4.687661E-01
  4.682801E-01
  4.684070E-01
  4.676177E-01
  4.675830E-01
  4.667845E-01
  4.668800E-01
  4.663192E-01
  4.667127E-01
  4.664515E-01
  4.670817E-01
  4.669349E-01
  4.675204E-01
  4.671734E-01
  4.674567E-01
  4.668031E-01
  4.668899E-01
  4.662411E-01
  4.665636E-01
  4.663296E-01
  4.671234E-01
  4.672645E-01
  4.682097E-01
  4.682254E-01
  4.688119E-01
  4.683585E-01
  4.685194E-01
  4.678091E-01
  4.679333E-01
  4.673735E-01
  4.677439E-01
  4.674215E-01
  4.679465E-01
  4.660746E-01
  4.666572E-01
  4.669695E-01
  4.675594E-01
  4.677278E-01
  4.680559E-01
  4.678867E-01
  4.678497E-01
  4.673457E-01
  4.670725E-01
  4.664997E-01
  4.663760E-01
  4.661804E-01
  4.666115E-01
  4.670374E-01
  4.680042E-01
  4.687225E-01
  4.696217E-01
  4.698775E-01
  4.699886E-01
  4.692968E-01
  4.685229E-01
  4.672222E-01
  4.662524E-01
  4.651852E-01
  4.647738E-01
  4.644116E-01
  4.646723E-01
  4.648333E-01
  4.654410E-01
  4.658099E-01
  4.665344E-01
  4.669398E-01
  4.675824E-01
  4.677338E-01
  4.679371E-01
  4.675311E-01
  4.672022E-01
  4.664556E-01
  4.660914E-01
  4.656185E-01
  4.657238E-01
  4.657333E-01
  4.661599E-01
  4.662365E-01
  4.664946E-01
  4.662780E-01
  4.662648E-01
  4.659182E-01
  4.659663E-01
  4.658450E-01
  4.662003E-01
  4.663666E-01
  4.669017E-01
  4.670862E-01
  4.674668E-01
  4.673538E-01
  4.673592E-01
  4.668824E-01
  4.666281E-01
  4.660674E-01
  4.659331E-01
  4.656695E-01
  4.659345E-01
  4.694235E-01
  4.691505E-01
  4.690995E-01
  4.683499E-01
  4.679720E-01
  4.670769E-01
  4.667185E-01
  4.659650E-01
  4.658232E-01
  4.653263E-01
  4.654645E-01
  4.652717E-01
  4.657464E-01
  4.659228E-01
  4.667752E-01
  4.672787E-01
  4.683200E-01
  4.687846E-01
  4.695062E-01
  4.693888E-01
  4.693694E-01
  4.685187E-01
  4.679537E-01
  4.668792E-01
  4.664568E-01
  4.658356E-01
  4.660451E-01
  4.660720E-01
  4.667997E-01
  4.671170E-01
  4.678708E-01
  4.679705E-01
  4.683292E-01
  4.679538E-01
  4.678680E-01
  4.671823E-01
  4.669940E-01
  4.664367E-01
  4.665706E-01
  4.664375E-01
  4.669711E-01
  4.670854E-01
  4.676228E-01
  4.674734E-01
  4.675398E-01
  4.668470E-01
  4.664715E-01
  4.655975E-01
  4.653891E-01
  4.650095E-01
  4.654916E-01
  4.657962E-01
  4.667506E-01
  4.671796E-01
  4.678948E-01
  4.678320E-01
  4.679990E-01
  4.675389E-01
  4.675987E-01
  4.673408E-01
  4.678097E-01
  4.679892E-01
  4.687421E-01
  4.689370E-01
  4.678842E-01
  4.675194E-01
  4.682489E-01
  4.675919E-01
  4.680060E-01
  4.670695E-01
  4.672705E-01
  4.661950E-01
  4.663358E-01
  4.652957E-01
  4.655945E-01
  4.648546E-01
  4.655851E-01
  4.653538E-01
  4.665759E-01
  4.667094E-01
  4.680737E-01
  4.680712E-01
  4.690232E-01
  4.683948E-01
  4.686211E-01
  4.673104E-01
  4.670385E-01
  4.655147E-01
  4.653463E-01
  4.641974E-01
  4.645733E-01
  4.640194E-01
  4.649455E-01
  4.648445E-01
  4.661060E-01
  4.662075E-01
  4.675073E-01
  4.674411E-01
  4.683487E-01
  4.677109E-01
  4.679918E-01
  4.668465E-01
  4.668964E-01
  4.658636E-01
  4.663065E-01
  4.657727E-01
  4.666071E-01
  4.661969E-01
  4.668480E-01
  4.660423E-01
  4.662676E-01
  4.651934E-01
  4.654239E-01
  4.646347E-01
  4.653353E-01
  4.650529E-01
  4.661530E-01
  4.660678E-01
  4.671359E-01
  4.668253E-01
  4.675537E-01
  4.668882E-01
  4.673428E-01
  4.665560E-01
  4.670688E-01
  4.664912E-01
  4.672860E-01
  4.669599E-01
  4.710271E-01
  4.697571E-01
  4.701355E-01
  4.682238E-01
  4.681981E-01
  4.661684E-01
  4.662862E-01
  4.645889E-01
  4.651406E-01
  4.639034E-01
  4.648911E-01
  4.640421E-01
  4.653651E-01
  4.648000E-01
  4.663523E-01
  4.659463E-01
  4.675593E-01
  4.670833E-01
  4.684757E-01
  4.676385E-01
  4.685789E-01
  4.672844E-01
  4.678627E-01
  4.663880E-01
  4.670142E-01
  4.658065E-01
  4.668572E-01
  4.661336E-01
  4.676165E-01
  4.671710E-01
  4.687054E-01
  4.680598E-01
  4.691754E-01
  4.679839E-01
  4.685619E-01
  4.669873E-01
  4.674511E-01
  4.660739E-01
  4.669969E-01
  4.662055E-01
  4.676561E-01
  4.671553E-01
  4.685445E-01
  4.676203E-01
  4.683308E-01
  4.666709E-01
  4.668199E-01
  4.649632E-01
  4.653652E-01
  4.641577E-01
  4.654274E-01
  4.650614E-01
  4.669158E-01
  4.667384E-01
  4.683817E-01
  4.677224E-01
  4.688237E-01
  4.677758E-01
  4.687791E-01
  4.679360E-01
  4.693338E-01
  4.688825E-01
  4.704742E-01
  4.698952E-01
  4.690291E-01
  4.678373E-01
  4.688644E-01
  4.673806E-01
  4.681300E-01
  4.664438E-01
  4.670886E-01
  4.653865E-01
  4.660877E-01
  4.645109E-01
  4.654183E-01
  4.641394E-01
  4.654226E-01
  4.645482E-01
  4.661894E-01
  4.655503E-01
  4.672536E-01
  4.664928E-01
  4.679185E-01
  4.667789E-01
  4.677927E-01
  4.662793E-01
  4.670223E-01
  4.653885E-01
  4.661797E-01
  4.647460E-01
  4.658430E-01
  4.647635E-01
  4.662140E-01
  4.654535E-01
  4.671615E-01
  4.665600E-01
  4.682761E-01
  4.674813E-01
  4.687916E-01
  4.674419E-01
  4.681898E-01
  4.664488E-01
  4.671180E-01
  4.656444E-01
  4.668232E-01
  4.658937E-01
  4.674253E-01
  4.665106E-01
  4.677145E-01
  4.662670E-01
  4.669498E-01
  4.651968E-01
  4.659023E-01
  4.644891E-01
  4.657382E-01
  4.649134E-01
  4.666509E-01
  4.661230E-01
  4.679360E-01
  4.672829E-01
  4.688237E-01
  4.678247E-01
  4.690287E-01
  4.677796E-01
  4.688718E-01
  4.676535E-01
  4.688684E-01
  4.677756E-01
  4.715344E-01
  4.698328E-01
  4.702302E-01
  4.680473E-01
  4.681910E-01
  4.660131E-01
  4.663843E-01
  4.645775E-01
  4.653753E-01
  4.639803E-01
  4.651356E-01
  4.640328E-01
  4.654208E-01
  4.645016E-01
  4.660302E-01
  4.652074E-01
  4.667818E-01
  4.659457E-01
  4.674436E-01
  4.664746E-01
  4.678036E-01
  4.666632E-01
  4.678589E-01
  4.666591E-01
  4.678890E-01
  4.668139E-01
  4.682317E-01
  4.673599E-01
  4.689361E-01
  4.681157E-01
  4.695864E-01
  4.684835E-01
  4.695207E-01
  4.679126E-01
  4.684954E-01
  4.666192E-01
  4.672246E-01
  4.656926E-01
  4.668984E-01
  4.660700E-01
  4.678823E-01
  4.673758E-01
  4.691124E-01
  4.681356E-01
  4.691321E-01
  4.673583E-01
  4.677377E-01
  4.657138E-01
  4.662876E-01
  4.648480E-01
  4.662314E-01
  4.656075E-01
  4.676102E-01
  4.672840E-01
  4.692451E-01
  4.686224E-01
  4.701799E-01
  4.692025E-01
  4.705634E-01
  4.695742E-01
  4.710472E-01
  4.701726E-01
  4.716318E-01
  4.705276E-01
  4.688336E-01
  4.677487E-01
  4.684243E-01
  4.673354E-01
  4.679780E-01
  4.668497E-01
  4.674488E-01
  4.662625E-01
  4.667881E-01
  4.655403E-01
  4.660675E-01
  4.649326E-01
  4.656976E-01
  4.648873E-01
  4.659847E-01
  4.654278E-01
  4.666402E-01
  4.660478E-01
  4.671066E-01
  4.663005E-01
  4.671476E-01
  4.661810E-01
  4.669481E-01
  4.659884E-01
  4.668329E-01
  4.659870E-01
  4.669427E-01
  4.661798E-01
  4.671899E-01
  4.664734E-01
  4.675426E-01
  4.668915E-01
  4.679866E-01
  4.672556E-01
  4.681212E-01
  4.670346E-01
  4.675233E-01
  4.661910E-01
  4.666959E-01
  4.656786E-01
  4.667077E-01
  4.662362E-01
  4.676256E-01
  4.671927E-01
  4.682922E-01
  4.673610E-01
  4.679428E-01
  4.666509E-01
  4.671286E-01