# vtk DataFile Version 2.0
title
ASCII
DATASET STRUCTURED_GRID
DIMENSIONS   64   64    1
POINTS   4096  float
  0.000000E+00  0.000000E+00  0.000000E+00
  0.000000E+00  3.906250E-01  0.000000E+00
  0.000000E+00  7.812500E-01  0.000000E+00
  0.000000E+00  1.171875E+00  0.000000E+00
  0.000000E+00  1.562500E+00  0.000000E+00
  0.000000E+00  1.953125E+00  0.000000E+00
  0.000000E+00  2.343750E+00  0.000000E+00
  0.000000E+00  2.734375E+00  0.000000E+00
  0.000000E+00  3.125000E+00  0.000000E+00
  0.000000E+00  3.515625E+00  0.000000E+00
  0.000000E+00  3.906250E+00  0.000000E+00
  0.000000E+00  4.296875E+00  0.000000E+00
  0.000000E+00  4.687500E+00  0.000000E+00
  0.000000E+00  5.078125E+00  0.000000E+00
  0.000000E+00  5.468750E+00  0.000000E+00
  0.000000E+00  5.859375E+00  0.000000E+00
  0.000000E+00  6.250000E+00  0.000000E+00
  0.000000E+00  6.640625E+00  0.000000E+00
  0.000000E+00  7.031250E+00  0.000000E+00
  0.000000E+00  7.421875E+00  0.000000E+00
  0.000000E+00  7.812500E+00  0.000000E+00
  0.000000E+00  8.203125E+00  0.000000E+00
  0.000000E+00  8.593750E+00  0.000000E+00
  0.000000E+00  8.984375E+00  0.000000E+00
  0.000000E+00  9.375000E+00  0.000000E+00
  0.000000E+00  9.765625E+00  0.000000E+00
  0.000000E+00  1.015625E+01  0.000000E+00
  0.000000E+00  1.054688E+01  0.000000E+00
  0.000000E+00  1.093750E+01  0.000000E+00
  0.000000E+00  1.132812E+01  0.000000E+00
  0.000000E+00  1.171875E+01  0.000000E+00
  0.000000E+00  1.210938E+01  0.000000E+00
  0.000000E+00  1.250000E+01  0.000000E+00
  0.000000E+00  1.289062E+01  0.000000E+00
  0.000000E+00  1.328125E+01  0.000000E+00
  0.000000E+00  1.367188E+01  0.000000E+00
  0.000000E+00  1.406250E+01  0.000000E+00
  0.000000E+00  1.445312E+01  0.000000E+00
  0.000000E+00  1.484375E+01  0.000000E+00
  0.000000E+00  1.523438E+01  0.000000E+00
  0.000000E+00  1.562500E+01  0.000000E+00
  0.000000E+00  1.601562E+01  0.000000E+00
  0.000000E+00  1.640625E+01  0.000000E+00
  0.000000E+00  1.679688E+01  0.000000E+00
  0.000000E+00  1.718750E+01  0.000000E+00
  0.000000E+00  1.757812E+01  0.000000E+00
  0.000000E+00  1.796875E+01  0.000000E+00
  0.000000E+00  1.835938E+01  0.000000E+00
  0.000000E+00  1.875000E+01  0.000000E+00
  0.000000E+00  1.914062E+01  0.000000E+00
  0.000000E+00  1.953125E+01  0.000000E+00
  0.000000E+00  1.992188E+01  0.000000E+00
  0.000000E+00  2.031250E+01  0.000000E+00
  0.000000E+00  2.070312E+01  0.000000E+00
  0.000000E+00  2.109375E+01  0.000000E+00
  0.000000E+00  2.148438E+01  0.000000E+00
  0.000000E+00  2.187500E+01  0.000000E+00
  0.000000E+00  2.226562E+01  0.000000E+00
  0.000000E+00  2.265625E+01  0.000000E+00
  0.000000E+00  2.304688E+01  0.000000E+00
  0.000000E+00  2.343750E+01  0.000000E+00
  0.000000E+00  2.382812E+01  0.000000E+00
  0.000000E+00  2.421875E+01  0.000000E+00
  0.000000E+00  2.460938E+01  0.000000E+00
  3.906250E-01  0.000000E+00  0.000000E+00
  3.906250E-01  3.906250E-01  0.000000E+00
  3.906250E-01  7.812500E-01  0.000000E+00
  3.906250E-01  1.171875E+00  0.000000E+00
  3.906250E-01  1.562500E+00  0.000000E+00
  3.906250E-01  1.953125E+00  0.000000E+00
  3.906250E-01  2.343750E+00  0.000000E+00
  3.906250E-01  2.734375E+00  0.000000E+00
  3.906250E-01  3.125000E+00  0.000000E+00
  3.906250E-01  3.515625E+00  0.000000E+00
  3.906250E-01  3.906250E+00  0.000000E+00
  3.906250E-01  4.296875E+00  0.000000E+00
  3.906250E-01  4.687500E+00  0.000000E+00
  3.906250E-01  5.078125E+00  0.000000E+00
  3.906250E-01  5.468750E+00  0.000000E+00
  3.906250E-01  5.859375E+00  0.000000E+00
  3.906250E-01  6.250000E+00  0.000000E+00
  3.906250E-01  6.640625E+00  0.000000E+00
  3.906250E-01  7.031250E+00  0.000000E+00
  3.906250E-01  7.421875E+00  0.000000E+00
  3.906250E-01  7.812500E+00  0.000000E+00
  3.906250E-01  8.203125E+00  0.000000E+00
  3.906250E-01  8.593750E+00  0.000000E+00
  3.906250E-01  8.984375E+00  0.000000E+00
  3.906250E-01  9.375000E+00  0.000000E+00
  3.906250E-01  9.765625E+00  0.000000E+00
  3.906250E-01  1.015625E+01  0.000000E+00
  3.906250E-01  1.054688E+01  0.000000E+00
  3.906250E-01  1.093750E+01  0.000000E+00
  3.906250E-01  1.132812E+01  0.000000E+00
  3.906250E-01  1.171875E+01  0.000000E+00
  3.906250E-01  1.210938E+01  0.000000E+00
  3.906250E-01  1.250000E+01  0.000000E+00
  3.906250E-01  1.289062E+01  0.000000E+00
  3.906250E-01  1.328125E+01  0.000000E+00
  3.906250E-01  1.367188E+01  0.000000E+00
  3.906250E-01  1.406250E+01  0.000000E+00
  3.906250E-01  1.445312E+01  0.000000E+00
  3.906250E-01  1.484375E+01  0.000000E+00
  3.906250E-01  1.523438E+01  0.000000E+00
  3.906250E-01  1.562500E+01  0.000000E+00
  3.906250E-01  1.601562E+01  0.000000E+00
  3.906250E-01  1.640625E+01  0.000000E+00
  3.906250E-01  1.679688E+01  0.000000E+00
  3.906250E-01  1.718750E+01  0.000000E+00
  3.906250E-01  1.757812E+01  0.000000E+00
  3.906250E-01  1.796875E+01  0.000000E+00
  3.906250E-01  1.835938E+01  0.000000E+00
  3.906250E-01  1.875000E+01  0.000000E+00
  3.906250E-01  1.914062E+01  0.000000E+00
  3.906250E-01  1.953125E+01  0.000000E+00
  3.906250E-01  1.992188E+01  0.000000E+00
  3.906250E-01  2.031250E+01  0.000000E+00
  3.906250E-01  2.070312E+01  0.000000E+00
  3.906250E-01  2.109375E+01  0.000000E+00
  3.906250E-01  2.148438E+01  0.000000E+00
  3.906250E-01  2.187500E+01  0.000000E+00
  3.906250E-01  2.226562E+01  0.000000E+00
  3.906250E-01  2.265625E+01  0.000000E+00
  3.906250E-01  2.304688E+01  0.000000E+00
  3.906250E-01  2.343750E+01  0.000000E+00
  3.906250E-01  2.382812E+01  0.000000E+00
  3.906250E-01  2.421875E+01  0.000000E+00
  3.906250E-01  2.460938E+01  0.000000E+00
  7.812500E-01  0.000000E+00  0.000000E+00
  7.812500E-01  3.906250E-01  0.000000E+00
  7.812500E-01  7.812500E-01  0.000000E+00
  7.812500E-01  1.171875E+00  0.000000E+00
  7.812500E-01  1.562500E+00  0.000000E+00
  7.812500E-01  1.953125E+00  0.000000E+00
  7.812500E-01  2.343750E+00  0.000000E+00
  7.812500E-01  2.734375E+00  0.000000E+00
  7.812500E-01  3.125000E+00  0.000000E+00
  7.812500E-01  3.515625E+00  0.000000E+00
  7.812500E-01  3.906250E+00  0.000000E+00
  7.812500E-01  4.296875E+00  0.000000E+00
  7.812500E-01  4.687500E+00  0.000000E+00
  7.812500E-01  5.078125E+00  0.000000E+00
  7.812500E-01  5.468750E+00  0.000000E+00
  7.812500E-01  5.859375E+00  0.000000E+00
  7.812500E-01  6.250000E+00  0.000000E+00
  7.812500E-01  6.640625E+00  0.000000E+00
  7.812500E-01  7.031250E+00  0.000000E+00
  7.812500E-01  7.421875E+00  0.000000E+00
  7.812500E-01  7.812500E+00  0.000000E+00
  7.812500E-01  8.203125E+00  0.000000E+00
  7.812500E-01  8.593750E+00  0.000000E+00
  7.812500E-01  8.984375E+00  0.000000E+00
  7.812500E-01  9.375000E+00  0.000000E+00
  7.812500E-01  9.765625E+00  0.000000E+00
  7.812500E-01  1.015625E+01  0.000000E+00
  7.812500E-01  1.054688E+01  0.000000E+00
  7.812500E-01  1.093750E+01  0.000000E+00
  7.812500E-01  1.132812E+01  0.000000E+00
  7.812500E-01  1.171875E+01  0.000000E+00
  7.812500E-01  1.210938E+01  0.000000E+00
  7.812500E-01  1.250000E+01  0.000000E+00
  7.812500E-01  1.289062E+01  0.000000E+00
  7.812500E-01  1.328125E+01  0.000000E+00
  7.812500E-01  1.367188E+01  0.000000E+00
  7.812500E-01  1.406250E+01  0.000000E+00
  7.812500E-01  1.445312E+01  0.000000E+00
  7.812500E-01  1.484375E+01  0.000000E+00
  7.812500E-01  1.523438E+01  0.000000E+00
  7.812500E-01  1.562500E+01  0.000000E+00
  7.812500E-01  1.601562E+01  0.000000E+00
  7.812500E-01  1.640625E+01  0.000000E+00
  7.812500E-01  1.679688E+01  0.000000E+00
  7.812500E-01  1.718750E+01  0.000000E+00
  7.812500E-01  1.757812E+01  0.000000E+00
  7.812500E-01  1.796875E+01  0.000000E+00
  7.812500E-01  1.835938E+01  0.000000E+00
  7.812500E-01  1.875000E+01  0.000000E+00
  7.812500E-01  1.914062E+01  0.000000E+00
  7.812500E-01  1.953125E+01  0.000000E+00
  7.812500E-01  1.992188E+01  0.000000E+00
  7.812500E-01  2.031250E+01  0.000000E+00
  7.812500E-01  2.070312E+01  0.000000E+00
  7.812500E-01  2.109375E+01  0.000000E+00
  7.812500E-01  2.148438E+01  0.000000E+00
  7.812500E-01  2.187500E+01  0.000000E+00
  7.812500E-01  2.226562E+01  0.000000E+00
  7.812500E-01  2.265625E+01  0.000000E+00
  7.812500E-01  2.304688E+01  0.000000E+00
  7.812500E-01  2.343750E+01  0.000000E+00
  7.812500E-01  2.382812E+01  0.000000E+00
  7.812500E-01  2.421875E+01  0.000000E+00
  7.812500E-01  2.460938E+01  0.000000E+00
  1.171875E+00  0.000000E+00  0.000000E+00
  1.171875E+00  3.906250E-01  0.000000E+00
  1.171875E+00  7.812500E-01  0.000000E+00
  1.171875E+00  1.171875E+00  0.000000E+00
  1.171875E+00  1.562500E+00  0.000000E+00
  1.171875E+00  1.953125E+00  0.000000E+00
  1.171875E+00  2.343750E+00  0.000000E+00
  1.171875E+00  2.734375E+00  0.000000E+00
  1.171875E+00  3.125000E+00  0.000000E+00
  1.171875E+00  3.515625E+00  0.000000E+00
  1.171875E+00  3.906250E+00  0.000000E+00
  1.171875E+00  4.296875E+00  0.000000E+00
  1.171875E+00  4.687500E+00  0.000000E+00
  1.171875E+00  5.078125E+00  0.000000E+00
  1.171875E+00  5.468750E+00  0.000000E+00
  1.171875E+00  5.859375E+00  0.000000E+00
  1.171875E+00  6.250000E+00  0.000000E+00
  1.171875E+00  6.640625E+00  0.000000E+00
  1.171875E+00  7.031250E+00  0.000000E+00
  1.171875E+00  7.421875E+00  0.000000E+00
  1.171875E+00  7.812500E+00  0.000000E+00
  1.171875E+00  8.203125E+00  0.000000E+00
  1.171875E+00  8.593750E+00  0.000000E+00
  1.171875E+00  8.984375E+00  0.000000E+00
  1.171875E+00  9.375000E+00  0.000000E+00
  1.171875E+00  9.765625E+00  0.000000E+00
  1.171875E+00  1.015625E+01  0.000000E+00
  1.171875E+00  1.054688E+01  0.000000E+00
  1.171875E+00  1.093750E+01  0.000000E+00
  1.171875E+00  1.132812E+01  0.000000E+00
  1.171875E+00  1.171875E+01  0.000000E+00
  1.171875E+00  1.210938E+01  0.000000E+00
  1.171875E+00  1.250000E+01  0.000000E+00
  1.171875E+00  1.289062E+01  0.000000E+00
  1.171875E+00  1.328125E+01  0.000000E+00
  1.171875E+00  1.367188E+01  0.000000E+00
  1.171875E+00  1.406250E+01  0.000000E+00
  1.171875E+00  1.445312E+01  0.000000E+00
[...]
POINT_DATA   4096
SCALARS CON  float  1
LOOKUP_TABLE default
  4.697618E-01
  4.693317E-01
  4.726679E-01
  4.707614E-01
  4.721823E-01
  4.690102E-01
  4.704277E-01
  4.682450E-01
  4.707381E-01
  4.688881E-01
  4.708185E-01
  4.680637E-01
  4.695189E-01
  4.671462E-01
  4.696846E-01
  4.685134E-01
  4.717293E-01
  4.703513E-01
  4.725553E-01
  4.697942E-01
  4.707619E-01
  4.672329E-01
  4.679344E-01
  4.645329E-01
  4.657185E-01
  4.632241E-01
  4.657071E-01
  4.645551E-01
  4.678426E-01
  4.665367E-01
  4.688580E-01
  4.664801E-01
  4.683882E-01
  4.664711E-01
  4.692031E-01
  4.676668E-01
  4.698960E-01
  4.672141E-01
  4.683156E-01
  4.650616E-01
  4.662313E-01
  4.634175E-01
  4.651198E-01
  4.628879E-01
  4.653898E-01
  4.643192E-01
  4.682028E-01
  4.682107E-01
  4.721615E-01
  4.708010E-01
  4.722741E-01
  4.684628E-01
  4.689016E-01
  4.662164E-01
  4.694383E-01
  4.696453E-01
  4.742038E-01
  4.734249E-01
  4.752126E-01
  4.712972E-01
  4.710169E-01
  4.668528E-01
  4.680241E-01
  4.662592E-01
  4.714513E-01
  4.715677E-01
  4.741154E-01
  4.726090E-01
  4.727859E-01
  4.693355E-01
  4.690331E-01
  4.667404E-01
  4.684322E-01
  4.678024E-01
  4.700757E-01
  4.689674E-01
  4.702850E-01
  4.684344E-01
  4.696657E-01
  4.684229E-01
  4.705873E-01
  4.699868E-01
  4.719791E-01
  4.703240E-01
  4.708610E-01
  4.680732E-01
  4.682747E-01
  4.659115E-01
  4.669090E-01
  4.653555E-01
  4.670772E-01
  4.662185E-01
  4.685628E-01
  4.680165E-01
  4.701054E-01
  4.687249E-01
  4.697193E-01
  4.674504E-01
  4.680960E-01
  4.660569E-01
  4.672838E-01
  4.658210E-01
  4.672885E-01
  4.655714E-01
  4.664087E-01
  4.640625E-01
  4.647123E-01
  4.628713E-01
  4.646630E-01
  4.643123E-01
  4.675451E-01
  4.681199E-01
  4.712838E-01
  4.705600E-01
  4.715802E-01
  4.689492E-01
  4.695329E-01
  4.684126E-01
  4.716452E-01
  4.726340E-01
  4.760203E-01
  4.750247E-01
  4.753927E-01
  4.718994E-01
  4.713020E-01
  4.684418E-01
  4.695025E-01
  4.686359E-01
  4.673183E-01
  4.697714E-01
  4.724343E-01
  4.727443E-01
  4.722221E-01
  4.699237E-01
  4.685704E-01
  4.673199E-01
  4.679589E-01
  4.683907E-01
  4.696231E-01
  4.695872E-01
  4.698962E-01
  4.691770E-01
  4.694358E-01
  4.692508E-01
  4.702319E-01
  4.704551E-01
  4.712021E-01
  4.705697E-01
  4.701717E-01
  4.685310E-01
  4.675526E-01
  4.658385E-01
  4.652377E-01
  4.642563E-01
  4.646100E-01
  4.645786E-01
  4.655792E-01
  4.656817E-01
  4.663683E-01
  4.660595E-01
  4.666292E-01
  4.666039E-01
  4.675656E-01
  4.675823E-01
  4.679935E-01
  4.670290E-01
  4.664388E-01
  4.647981E-01
  4.639728E-01
  4.625092E-01
  4.622611E-01
  4.618121E-01
  4.629878E-01
  4.641572E-01
  4.667317E-01
  4.685718E-01
  4.706840E-01
  4.708854E-01
  4.707050E-01
  4.689838E-01
  4.683107E-01
  4.679472E-01
  4.698532E-01
  4.718493E-01
  4.744521E-01
  4.748918E-01
  4.742777E-01
  4.712507E-01
  4.683975E-01
  4.652482E-01
  4.644150E-01
  4.646619E-01
  4.685334E-01
  4.714847E-01
  4.724751E-01
  4.733244E-01
  4.710926E-01
  4.691087E-01
  4.658670E-01
  4.651501E-01
  4.646686E-01
  4.667437E-01
  4.678423E-01
  4.698552E-01
  4.696673E-01
  4.700725E-01
  4.688620E-01
  4.693188E-01
  4.690684E-01
  4.706616E-01
  4.708686E-01
  4.718244E-01
  4.705981E-01
  4.700990E-01
  4.680840E-01
  4.676364E-01
  4.661932E-01
  4.663986E-01
  4.654932E-01
  4.662174E-01
  4.659516E-01
  4.673487E-01
  4.674546E-01
  4.686002E-01
  4.678317E-01
  4.678859E-01
  4.663920E-01
  4.664686E-01
  4.656659E-01
  4.665967E-01
  4.661923E-01
  4.667454E-01
  4.654140E-01
  4.651502E-01
  4.637632E-01
  4.643924E-01
  4.644602E-01
  4.664517E-01
  4.672864E-01
  4.692717E-01
  4.693763E-01
  4.700888E-01
  4.687719E-01
  4.685793E-01
  4.675363E-01
  4.689114E-01
  4.699746E-01
  4.727055E-01
  4.733975E-01
  4.740567E-01
  4.719776E-01
  4.704512E-01
  4.675915E-01
  4.667819E-01
  4.657420E-01
  4.672997E-01
  4.648964E-01
  4.693019E-01
  4.698532E-01
  4.721083E-01
  4.693825E-01
  4.688543E-01
  4.651443E-01
  4.657012E-01
  4.643306E-01
  4.671734E-01
  4.670094E-01
  4.697039E-01
  4.684892E-01
  4.700342E-01
  4.682569E-01
  4.700588E-01
  4.690676E-01
  4.715810E-01
  4.706747E-01
  4.724494E-01
  4.702063E-01
  4.705245E-01
  4.671813E-01
  4.670490E-01
  4.639630E-01
  4.646558E-01
  4.626992E-01
  4.645233E-01
  4.634434E-01
  4.657492E-01
  4.647678E-01
  4.669358E-01
  4.657819E-01
  4.678766E-01
  4.667242E-01
  4.687342E-01
  4.672411E-01
  4.686106E-01
  4.663012E-01
  4.669180E-01
  4.641973E-01
  4.649836E-01
  4.631075E-01
  4.652471E-01
  4.647983E-01
  4.679172E-01
  4.676613E-01
  4.701772E-01
  4.687684E-01
  4.699221E-01
  4.673072E-01
  4.678128E-01
  4.654679E-01
  4.672390E-01
  4.667303E-01
  4.700540E-01
  4.699480E-01
  4.721482E-01
  4.697424E-01
  4.693780E-01
  4.651976E-01
  4.646247E-01
  4.620193E-01
  4.643455E-01
  4.671360E-01
  4.706400E-01
  4.696834E-01
  4.716815E-01
  4.682390E-01
  4.679232E-01
  4.635886E-01
  4.643399E-01
  4.625104E-01
  4.659699E-01
  4.658391E-01
  4.694190E-01
  4.681034E-01
  4.700768E-01
  4.677315E-01
  4.698283E-01
  4.685863E-01
  4.719371E-01
  4.711290E-01
  4.736088E-01
  4.709326E-01
  4.714193E-01
  4.674866E-01
  4.678155E-01
  4.646009E-01
  4.660174E-01
  4.638721E-01
  4.662546E-01
  4.650497E-01
  4.682940E-01
  4.675524E-01
  4.704766E-01
  4.685726E-01
  4.699738E-01
  4.669863E-01
  4.683221E-01
  4.662081E-01
  4.686509E-01
  4.670498E-01
  4.690720E-01
  4.665246E-01
  4.679233E-01
  4.657004E-01
  4.682659E-01
  4.672846E-01
  4.703348E-01
  4.687995E-01
  4.706386E-01
  4.678758E-01
  4.689066E-01
  4.658787E-01
  4.671983E-01
  4.650292E-01
  4.676453E-01
  4.667499E-01
  4.699704E-01
  4.686263E-01
  4.705628E-01
  4.677889E-01
  4.688163E-01
  4.658991E-01
  4.673997E-01
  4.653424E-01
  4.679673E-01
  4.643045E-01
  4.679203E-01
  4.673883E-01
  4.699853E-01
  4.675320E-01
  4.683027E-01
  4.650431E-01
  4.663505E-01
  4.645566E-01
  4.674124E-01
  4.664802E-01
  4.692260E-01
  4.675177E-01
  4.694910E-01
  4.676225E-01
  4.702126E-01
  4.693530E-01
  4.726498E-01
  4.716126E-01
  4.737025E-01
  4.707693E-01
  4.709021E-01
  4.665892E-01
  4.663429E-01
  4.627311E-01
  4.639890E-01
  4.621701E-01
  4.649820E-01
  4.641493E-01
  4.673237E-01
  4.663705E-01
  4.691567E-01
  4.677587E-01
  4.702033E-01
  4.686155E-01
  4.709131E-01
  4.690078E-01
  4.706649E-01
  4.678695E-01
  4.687164E-01
  4.656283E-01
  4.669940E-01
  4.651680E-01
  4.680627E-01
  4.673489E-01
  4.704244E-01
  4.689249E-01
  4.706898E-01
  4.679515E-01
  4.689312E-01
  4.659149E-01
  4.670192E-01
  4.644694E-01
  4.663700E-01
  4.648275E-01
  4.676341E-01
  4.665111E-01
  4.690222E-01
  4.669573E-01
  4.682130E-01
  4.650450E-01
  4.658108E-01
  4.630802E-01
  4.652056E-01
  4.666814E-01
  4.686093E-01
  4.676836E-01
  4.695411E-01
  4.677356E-01
  4.683335E-01
  4.656967E-01
  4.664942E-01
  4.650523E-01
  4.673903E-01
  4.669937E-01
  4.693686E-01
  4.681199E-01
  4.694342E-01
  4.677429E-01
  4.696651E-01
  4.693354E-01
  4.724718E-01
  4.722581E-01
  4.740410E-01
  4.714790E-01
  4.709619E-01
  4.671442E-01
  4.668298E-01
  4.643716E-01
  4.658495E-01
  4.649490E-01
  4.674717E-01
  4.671923E-01
  4.700659E-01
  4.698103E-01
  4.721551E-01
  4.707553E-01
  4.717078E-01
  4.693311E-01
  4.701976E-01
  4.685022E-01
  4.701555E-01
  4.686728E-01
  4.698185E-01
  4.676167E-01
  4.685754E-01
  4.670675E-01
  4.692330E-01
  4.686248E-01
  4.707547E-01
  4.692143E-01
  4.701294E-01
  4.677489E-01
  4.684456E-01
  4.663102E-01
  4.674830E-01
  4.659645E-01
  4.678378E-01
  4.668826E-01
  4.688599E-01
  4.674433E-01
  4.687038E-01
  4.668320E-01
  4.681686E-01
  4.666913E-01
  4.682887E-01
  4.667251E-01
  4.681295E-01
  4.634704E-01
  4.654461E-01
  4.657272E-01
  4.681179E-01
  4.679628E-01
  4.694099E-01
  4.683413E-01
  4.693176E-01
  4.682915E-01
  4.695529E-01
  4.686539E-01
  4.696586E-01
  4.682681E-01
  4.689994E-01
  4.679790E-01
  4.697534E-01
  4.699712E-01
  4.724472E-01
  4.722846E-01
  4.732606E-01
  4.709666E-01
  4.699526E-01
  4.665395E-01
  4.656860E-01
  4.636398E-01
  4.648181E-01
  4.646866E-01
  4.670155E-01
  4.670696E-01
  4.688987E-01
  4.682797E-01
  4.696834E-01
  4.690360E-01
  4.706913E-01
  4.702893E-01
  4.718491E-01
  4.707812E-01
  4.711507E-01
  4.687563E-01
  4.682444E-01
  4.658713E-01
  4.663346E-01
  4.654827E-01
  4.673626E-01
  4.672787E-01
  4.691129E-01
  4.684184E-01
  4.695176E-01
  4.682821E-01
  4.690708E-01
  4.676170E-01
  4.682098E-01
  4.666980E-01
  4.675417E-01
  4.665898E-01
  4.680573E-01
  4.674593E-01
  4.688112E-01
  4.676530E-01
  4.681791E-01
  4.661620E-01
  4.660552E-01
  4.639101E-01
  4.643812E-01
  4.654908E-01
  4.662478E-01
  4.662550E-01
  4.680917E-01
  4.683295E-01
  4.694996E-01
  4.687036E-01
  4.691688E-01
  4.683622E-01
  4.693246E-01
  4.689683E-01
  4.698476E-01
  4.688439E-01
  4.690018E-01
  4.678875E-01
  4.689029E-01
  4.692931E-01
  4.715693E-01
  4.720614E-01
  4.729645E-01
  4.711536E-01
  4.699414E-01
  4.672442E-01
  4.667531E-01
  4.659292E-01
  4.674967E-01
  4.680272E-01
  4.699067E-01
  4.699832E-01
  4.711841E-01
  4.707117E-01
  4.714865E-01
  4.705484E-01
  4.708155E-01
  4.695508E-01
  4.698677E-01
  4.689233E-01
  4.694593E-01
  4.683351E-01
  4.683829E-01
  4.669092E-01
  4.671753E-01
  4.665097E-01
  4.677355E-01
  4.676253E-01
  4.687711E-01
  4.681868E-01
  4.689080E-01
  4.681815E-01
  4.689244E-01
  4.681629E-01
  4.688179E-01
  4.681505E-01
  4.692158E-01
  4.690373E-01
  4.702085E-01
  4.695235E-01
  4.698560E-01
  4.685620E-01
  4.688335E-01
  4.678119E-01
  4.681884E-01
  4.668548E-01
  4.667957E-01
  4.624101E-01
  4.638441E-01
  4.646235E-01
  4.671510E-01
  4.681372E-01
  4.700485E-01
  4.699516E-01
  4.707802E-01
  4.699386E-01
  4.704026E-01
  4.693622E-01
  4.695640E-01
  4.682135E-01
  4.683541E-01
  4.675164E-01
  4.687562E-01
  4.691747E-01
  4.711659E-01
  4.713301E-01
  4.720196E-01
  4.702877E-01
  4.692354E-01
  4.666488E-01
  4.660345E-01
  4.650425E-01
  4.664994E-01
  4.671214E-01
  4.690342E-01
  4.688852E-01
  4.693901E-01
  4.680652E-01
  4.682567E-01
  4.675552E-01
  4.688530E-01
  4.690421E-01
  4.704281E-01
  4.697169E-01
  4.695453E-01
  4.673315E-01
  4.664382E-01
  4.646125E-01
  4.649682E-01
  4.646119E-01
  4.660417E-01
  4.661176E-01
  4.675050E-01
  4.674035E-01
  4.686787E-01
  4.684566E-01
  4.693929E-01
  4.685455E-01
  4.688050E-01
  4.676438E-01
  4.682227E-01
  4.678907E-01
  4.693372E-01
  4.693935E-01
  4.704901E-01
  4.695513E-01
  4.693320E-01
  4.671405E-01
  4.660790E-01
  4.637301E-01
  4.633394E-01
  4.651470E-01
  4.658138E-01
  4.657374E-01
  4.676195E-01
  4.679947E-01
  4.693850E-01
  4.687066E-01
  4.691454E-01
  4.681030E-01
  4.687646E-01
  4.681051E-01
  4.688272E-01
  4.677702E-01
  4.679844E-01
  4.668905E-01
  4.678883E-01
  4.681720E-01
  4.703910E-01
  4.709138E-01
  4.720423E-01
  4.705579E-01
  4.697429E-01
  4.673736E-01
  4.671695E-01
  4.665445E-01
  4.682861E-01
  4.688607E-01
  4.706237E-01
  4.702936E-01
  4.708811E-01
  4.696748E-01
  4.698585E-01
  4.685609E-01
  4.687649E-01
  4.675521E-01
  4.679478E-01
  4.669907E-01
  4.675422E-01
  4.665194E-01
  4.668758E-01
  4.657981E-01
  4.664501E-01
  4.659554E-01
  4.671684E-01
  4.669147E-01
  4.680097E-01
  4.674971E-01
  4.684189E-01
  4.678228E-01
  4.685797E-01
  4.676740E-01
  4.682089E-01
  4.675268E-01
  4.688127E-01
  4.690073E-01
  4.706683E-01
  4.704033E-01
  4.710203E-01
  4.697347E-01
  4.698004E-01
  4.683970E-01
  4.684164E-01
  4.667937E-01
  4.665822E-01
  4.631640E-01
  4.646179E-01
  4.649601E-01
  4.671295E-01
  4.676047E-01
  4.693242E-01
  4.689266E-01
  4.696582E-01
  4.684795E-01
  4.687900E-01
  4.674739E-01
  4.677650E-01
  4.665052E-01
  4.670708E-01
  4.664653E-01
  4.680148E-01
  4.683930E-01
  4.704770E-01
  4.706163E-01
  4.716440E-01
  4.701681E-01
  4.695198E-01
  4.669198E-01
  4.662078E-01
  4.647230E-01
  4.658571E-01
  4.660740E-01
  4.679301E-01
  4.676114E-01
  4.681381E-01
  4.665971E-01
  4.667634E-01
  4.658791E-01
  4.672332E-01
  4.672827E-01
  4.687104E-01
  4.678807E-01
  4.679283E-01
  4.659439E-01
  4.656445E-01
  4.642381E-01
  4.650702E-01
  4.647667E-01
  4.662506E-01
  4.660843E-01
  4.674050E-01
  4.670172E-01
  4.681302E-01
  4.674545E-01
  4.681102E-01
  4.668950E-01
  4.672031E-01
  4.661180E-01
  4.671048E-01
  4.670030E-01
  4.688266E-01
  4.689913E-01
  4.703174E-01
  4.693305E-01
  4.692068E-01
  4.669392E-01
  4.661204E-01
  4.639613E-01
  4.639998E-01
  4.670930E-01
  4.675765E-01
  4.670350E-01
  4.679485E-01
  4.676397E-01
  4.683417E-01
  4.674608E-01
  4.675885E-01
  4.664844E-01
  4.668196E-01
  4.661242E-01
  4.667498E-01
  4.660999E-01
  4.667030E-01
  4.662919E-01
  4.675849E-01
  4.681553E-01
  4.702425E-01
  4.708796E-01
  4.720344E-01
  4.709438E-01
  4.702094E-01
  4.678436E-01
  4.669749E-01
  4.656108E-01
  4.663430E-01
  4.664142E-01
  4.678545E-01
  4.678266E-01
  4.687029E-01
  4.680829E-01
  4.685569E-01
  4.676712E-01
  4.678904E-01
  4.667710E-01
  4.669238E-01
  4.660086E-01
  4.665551E-01
  4.660125E-01
  4.667620E-01
  4.662887E-01
  4.671211E-01
  4.668173E-01
  4.678015E-01
  4.674422E-01
  4.680820E-01
  4.672100E-01
  4.673947E-01
  4.662837E-01
  4.664759E-01
  4.656097E-01
  4.663150E-01
  4.662258E-01
  4.677729E-01
  4.681865E-01
  4.695357E-01
  4.690501E-01
  4.692397E-01
  4.679412E-01
  4.680192E-01
  4.671913E-01
  4.678665E-01
  4.673335E-01
  4.678978E-01
  4.661445E-01
  4.670468E-01
  4.670631E-01
  4.676588E-01
  4.675711E-01
  4.681646E-01
  4.679401E-01
  4.681425E-01
  4.673723E-01
  4.670905E-01
  4.660777E-01
  4.658901E-01
  4.653489E-01
  4.659863E-01
  4.664668E-01
  4.680230E-01
  4.690086E-01
  4.705085E-01
  4.709293E-01
  4.714794E-01
  4.706406E-01
  4.697123E-01
  4.674648E-01
  4.657195E-01
  4.637290E-01
  4.633459E-01
  4.632349E-01
  4.643487E-01
  4.647358E-01
  4.654305E-01
  4.651521E-01
  4.656482E-01
  4.658535E-01
  4.671127E-01
  4.676911E-01
  4.685124E-01
  4.679620E-01
  4.675234E-01
  4.662056E-01
  4.658105E-01
  4.652222E-01
  4.658112E-01
  4.660007E-01
  4.668935E-01
  4.668982E-01
  4.672784E-01
  4.666652E-01
  4.665302E-01
  4.656631E-01
  4.656196E-01
  4.651671E-01
  4.657221E-01
  4.658401E-01
  4.667439E-01
  4.668985E-01
  4.675538E-01
  4.672598E-01
  4.673478E-01
  4.664567E-01
  4.660765E-01
  4.650727E-01
  4.650921E-01
  4.649082E-01
  4.658054E-01
  4.706943E-01
  4.702547E-01
  4.695157E-01
  4.684714E-01
  4.677873E-01
  4.670949E-01
  4.667198E-01
  4.661820E-01
  4.658907E-01
  4.654795E-01
  4.653932E-01
  4.652486E-01
  4.654976E-01
  4.657985E-01
  4.666118E-01
  4.675094E-01
  4.687838E-01
  4.698288E-01
  4.708117E-01
  4.710813E-01
  4.708638E-01
  4.697155E-01
  4.682329E-01
  4.664041E-01
  4.651056E-01
  4.642582E-01
  4.643237E-01
  4.647014E-01
  4.655354E-01
  4.662389E-01
  4.671483E-01
  4.677805E-01
  4.683863E-01
  4.683742E-01
  4.681055E-01
  4.673508E-01
  4.668392E-01
  4.664203E-01
  4.665576E-01
  4.667259E-01
  4.671943E-01
  4.674905E-01
  4.679954E-01
  4.681950E-01
  4.682879E-01
  4.676747E-01
  4.667748E-01
  4.654593E-01
  4.645734E-01
  4.640895E-01
  4.645770E-01
  4.655170E-01
  4.669808E-01
  4.680920E-01
  4.688073E-01
  4.684609E-01
  4.675455E-01
  4.660875E-01
  4.651181E-01
  4.647628E-01
  4.656264E-01
  4.670588E-01
  4.688984E-01
  4.701055E-01
  4.696740E-01
  4.693814E-01
  4.693229E-01
  4.679185E-01
  4.676546E-01
  4.667727E-01
  4.671899E-01
  4.666338E-01
  4.668673E-01
  4.658256E-01
  4.656507E-01
  4.646253E-01
  4.650573E-01
  4.651108E-01
  4.666871E-01
  4.674391E-01
  4.689753E-01
  4.690869E-01
  4.698218E-01
  4.693126E-01
  4.695552E-01
  4.683583E-01
  4.675652E-01
  4.653181E-01
  4.641105E-01
  4.625067E-01
  4.627739E-01
  4.627219E-01
  4.639165E-01
  4.640487E-01
  4.651548E-01
  4.654810E-01
  4.671583E-01
  4.679701E-01
  4.694401E-01
  4.691388E-01
  4.689814E-01
  4.672794E-01
  4.665627E-01
  4.652956E-01
  4.656886E-01
  4.656508E-01
  4.668806E-01
  4.669913E-01
  4.676541E-01
  4.667100E-01
  4.662558E-01
  4.646310E-01
  4.643018E-01
  4.636429E-01
  4.647488E-01
  4.653634E-01
  4.670112E-01
  4.672354E-01
  4.678225E-01
  4.668492E-01
  4.665727E-01
  4.652546E-01
  4.650943E-01
  4.642640E-01
  4.649564E-01
  4.652934E-01
  4.671638E-01
  4.681438E-01
  4.732965E-01
  4.715511E-01
  4.709955E-01
  4.682530E-01
  4.676917E-01
  4.655922E-01
  4.658513E-01
  4.644284E-01
  4.651322E-01
  4.639869E-01
  4.649126E-01
  4.640338E-01
  4.653259E-01
  4.648845E-01
  4.665584E-01
  4.662848E-01
  4.678470E-01
  4.672783E-01
  4.685425E-01
  4.677677E-01
  4.688291E-01
  4.676766E-01
  4.681348E-01
  4.663561E-01
  4.665087E-01
  4.649607E-01
  4.657904E-01
  4.650586E-01
  4.665832E-01
  4.663757E-01
  4.683124E-01
  4.683385E-01
  4.700783E-01
  4.692754E-01
  4.697120E-01
  4.676761E-01
  4.675383E-01
  4.657980E-01
  4.665464E-01
  4.657908E-01
  4.672893E-01
  4.669877E-01
  4.686616E-01
  4.681409E-01
  4.690125E-01
  4.671433E-01
  4.665856E-01
  4.639323E-01
  4.637659E-01
  4.626400E-01
  4.645324E-01
  4.651712E-01
  4.678950E-01
  4.682084E-01
  4.696534E-01
  4.682452E-01
  4.681671E-01
  4.660062E-01
  4.662581E-01
  4.654403E-01
  4.675906E-01
  4.685080E-01
  4.715030E-01
  4.719548E-01
  4.706531E-01
  4.691965E-01
  4.697424E-01
  4.672332E-01
  4.674925E-01
  4.654325E-01
  4.664211E-01
  4.648745E-01
  4.659493E-01
  4.641971E-01
  4.651020E-01
  4.635200E-01
  4.650398E-01
  4.643270E-01
  4.665368E-01
  4.659056E-01
  4.674987E-01
  4.659502E-01
  4.669639E-01
  4.655425E-01
  4.671538E-01
  4.661442E-01
  4.674883E-01
  4.656608E-01
  4.662838E-01
  4.644217E-01
  4.657138E-01
  4.646964E-01
  4.664577E-01
  4.654591E-01
  4.671894E-01
  4.665098E-01
  4.688424E-01
  4.685155E-01
  4.704103E-01
  4.687936E-01
  4.690629E-01
  4.662477E-01
  4.662910E-01
  4.642823E-01
  4.657735E-01
  4.652366E-01
  4.676350E-01
  4.670816E-01
  4.685352E-01
  4.664841E-01
  4.665280E-01
  4.638038E-01
  4.642574E-01
  4.628737E-01
  4.650022E-01
  4.648914E-01
  4.674103E-01
  4.668323E-01
  4.684916E-01
  4.672199E-01
  4.686184E-01
  4.673725E-01
  4.687609E-01
  4.673444E-01
  4.686193E-01
  4.674601E-01
  4.693709E-01
  4.687901E-01
  4.724875E-01
  4.700975E-01
  4.704752E-01
  4.674652E-01
  4.676899E-01
  4.649112E-01
  4.655817E-01
  4.633282E-01
  4.645450E-01
  4.628471E-01
  4.646168E-01
  4.634292E-01
  4.655895E-01
  4.645664E-01
  4.665747E-01
  4.650932E-01
  4.665138E-01
  4.646222E-01
  4.660778E-01
  4.646941E-01
  4.668583E-01
  4.659788E-01
  4.681923E-01
  4.669812E-01
  4.687831E-01
  4.673373E-01
  4.691107E-01
  4.677145E-01
  4.695442E-01
  4.682806E-01
  4.703670E-01
  4.692977E-01
  4.711391E-01
  4.691621E-01
  4.696838E-01
  4.666315E-01
  4.669278E-01
  4.646118E-01
  4.661936E-01
  4.651467E-01
  4.676455E-01
  4.671097E-01
  4.697063E-01
  4.687186E-01
  4.701823E-01
  4.675617E-01
  4.674968E-01
  4.641913E-01
  4.646728E-01
  4.629103E-01
  4.652418E-01
  4.649324E-01
  4.679580E-01
  4.676217E-01
  4.701625E-01
  4.691669E-01
  4.710763E-01
  4.695980E-01
  4.712464E-01
  4.697665E-01
  4.716440E-01
  4.704841E-01
  4.725291E-01
  4.711426E-01
  4.685622E-01
  4.673772E-01
  4.687012E-01
  4.669224E-01
  4.677634E-01
  4.658879E-01
  4.669118E-01
  4.652146E-01
  4.662376E-01
  4.644252E-01
  4.654421E-01
  4.639288E-01
  4.655565E-01
  4.647245E-01
  4.667116E-01
  4.656218E-01
  4.668034E-01
  4.648498E-01
  4.657265E-01
  4.642964E-01
  4.661892E-01
  4.655634E-01
  4.675448E-01
  4.663911E-01
  4.677923E-01
  4.664898E-01
  4.681493E-01
  4.670721E-01
  4.685637E-01
  4.670292E-01
  4.682309E-01
  4.669068E-01
  4.686692E-01
  4.677291E-01
  4.692451E-01
  4.674214E-01
  4.678601E-01
  4.653546E-01
  4.659028E-01
  4.643262E-01
  4.662946E-01
  4.660766E-01
  4.687702E-01
  4.682981E-01
  4.698280E-01
  4.677751E-01
  4.679985E-01
  4.654528E-01
  4.661140E-01