# vtk DataFile Version 2.0
title
ASCII
DATASET STRUCTURED_GRID
DIMENSIONS   64   64    1
POINTS   4096  float
  0.000000E+00  0.000000E+00  0.000000E+00
  0.000000E+00  3.906250E-01  0.000000E+00
  0.000000E+00  7.812500E-01  0.000000E+00
  0.000000E+00  1.171875E+00  0.000000E+00
  0.000000E+00  1.562500E+00  0.000000E+00
  0.000000E+00  1.953125E+00  0.000000E+00
  0.000000E+00  2.343750E+00  0.000000E+00
  0.000000E+00  2.734375E+00  0.000000E+00
  0.000000E+00  3.125000E+00  0.000000E+00
  0.000000E+00  3.515625E+00  0.000000E+00
  0.000000E+00  3.906250E+00  0.000000E+00
  0.000000E+00  4.296875E+00  0.000000E+00
  0.000000E+00  4.687500E+00  0.000000E+00
  0.000000E+00  5.078125E+00  0.000000E+00
  0.000000E+00  5.468750E+00  0.000000E+00
  0.000000E+00  5.859375E+00  0.000000E+00
  0.000000E+00  6.250000E+00  0.000000E+00
  0.000000E+00  6.640625E+00  0.000000E+00
  0.000000E+00  7.031250E+00  0.000000E+00
  0.000000E+00  7.421875E+00  0.000000E+00
  0.000000E+00  7.812500E+00  0.000000E+00
  0.000000E+00  8.203125E+00  0.000000E+00
  0.000000E+00  8.593750E+00  0.000000E+00
  0.000000E+00  8.984375E+00  0.000000E+00
  0.000000E+00  9.375000E+00  0.000000E+00
  0.000000E+00  9.765625E+00  0.000000E+00
  0.000000E+00  1.015625E+01  0.000000E+00
  0.000000E+00  1.054688E+01  0.000000E+00
  0.000000E+00  1.093750E+01  0.000000E+00
  0.000000E+00  1.132812E+01  0.000000E+00
  0.000000E+00  1.171875E+01  0.000000E+00
  0.000000E+00  1.210938E+01  0.000000E+00
  0.000000E+00  1.250000E+01  0.000000E+00
  0.000000E+00  1.289062E+01  0.000000E+00
  0.000000E+00  1.328125E+01  0.000000E+00
  0.000000E+00  1.367188E+01  0.000000E+00
  0.000000E+00  1.406250E+01  0.000000E+00
  0.000000E+00  1.445312E+01  0.000000E+00
  0.000000E+00  1.484375E+01  0.000000E+00
  0.000000E+00  1.523438E+01  0.000000E+00
  0.000000E+00  1.562500E+01  0.000000E+00
  0.000000E+00  1.601562E+01  0.000000E+00
  0.000000E+00  1.640625E+01  0.000000E+00
  0.000000E+00  1.679688E+01  0.000000E+00
  0.000000E+00  1.718750E+01  0.000000E+00
  0.000000E+00  1.757812E+01  0.000000E+00
  0.000000E+00  1.796875E+01  0.000000E+00
  0.000000E+00  1.835938E+01  0.000000E+00
  0.000000E+00  1.875000E+01  0.000000E+00
  0.000000E+00  1.914062E+01  0.000000E+00
  0.000000E+00  1.953125E+01  0.000000E+00
  0.000000E+00  1.992188E+01  0.000000E+00
  0.000000E+00  2.031250E+01  0.000000E+00
  0.000000E+00  2.070312E+01  0.000000E+00
  0.000000E+00  2.109375E+01  0.000000E+00
  0.000000E+00  2.148438E+01  0.000000E+00
  0.000000E+00  2.187500E+01  0.000000E+00
  0.000000E+00  2.226562E+01  0.000000E+00
  0.000000E+00  2.265625E+01  0.000000E+00
  0.000000E+00  2.304688E+01  0.000000E+00
  0.000000E+00  2.343750E+01  0.000000E+00
  0.000000E+00  2.382812E+01  0.000000E+00
  0.000000E+00  2.421875E+01  0.000000E+00
  0.000000E+00  2.460938E+01  0.000000E+00
  3.906250E-01  0.000000E+00  0.000000E+00
  3.906250E-01  3.906250E-01  0.000000E+00
  3.906250E-01  7.812500E-01  0.000000E+00
  3.906250E-01  1.171875E+00  0.000000E+00
  3.906250E-01  1.562500E+00  0.000000E+00
  3.906250E-01  1.953125E+00  0.000000E+00
  3.906250E-01  2.343750E+00  0.000000E+00
  3.906250E-01  2.734375E+00  0.000000E+00
  3.906250E-01  3.125000E+00  0.000000E+00
  3.906250E-01  3.515625E+00  0.000000E+00
  3.906250E-01  3.906250E+00  0.000000E+00
  3.906250E-01  4.296875E+00  0.000000E+00
  3.906250E-01  4.687500E+00  0.000000E+00
  3.906250E-01  5.078125E+00  0.000000E+00
  3.906250E-01  5.468750E+00  0.000000E+00
  3.906250E-01  5.859375E+00  0.000000E+00
  3.906250E-01  6.250000E+00  0.000000E+00
  3.906250E-01  6.640625E+00  0.000000E+00
  3.906250E-01  7.031250E+00  0.000000E+00
  3.906250E-01  7.421875E+00  0.000000E+00
  3.906250E-01  7.812500E+00  0.000000E+00
  3.906250E-01  8.203125E+00  0.000000E+00
  3.906250E-01  8.593750E+00  0.000000E+00
  3.906250E-01  8.984375E+00  0.000000E+00
  3.906250E-01  9.375000E+00  0.000000E+00
  3.906250E-01  9.765625E+00  0.000000E+00
  3.906250E-01  1.015625E+01  0.000000E+00
  3.906250E-01  1.054688E+01  0.000000E+00
  3.906250E-01  1.093750E+01  0.000000E+00
  3.906250E-01  1.132812E+01  0.000000E+00
  3.906250E-01  1.171875E+01  0.000000E+00
  3.906250E-01  1.210938E+01  0.000000E+00
  3.906250E-01  1.250000E+01  0.000000E+00
  3.906250E-01  1.289062E+01  0.000000E+00
  3.906250E-01  1.328125E+01  0.000000E+00
  3.906250E-01  1.367188E+01  0.000000E+00
  3.906250E-01  1.406250E+01  0.000000E+00
  3.906250E-01  1.445312E+01  0.000000E+00
  3.906250E-01  1.484375E+01  0.000000E+00
  3.906250E-01  1.523438E+01  0.000000E+00
  3.906250E-01  1.562500E+01  0.000000E+00
  3.906250E-01  1.601562E+01  0.000000E+00
  3.906250E-01  1.640625E+01  0.000000E+00
  3.906250E-01  1.679688E+01  0.000000E+00
  3.906250E-01  1.718750E+01  0.000000E+00
  3.906250E-01  1.757812E+01  0.000000E+00
  3.906250E-01  1.796875E+01  0.000000E+00
  3.906250E-01  1.835938E+01  0.000000E+00
  3.906250E-01  1.875000E+01  0.000000E+00
  3.906250E-01  1.914062E+01  0.000000E+00
  3.906250E-01  1.953125E+01  0.000000E+00
  3.906250E-01  1.992188E+01  0.000000E+00
  3.906250E-01  2.031250E+01  0.000000E+00
  3.906250E-01  2.070312E+01  0.000000E+00
  3.906250E-01  2.109375E+01  0.000000E+00
  3.906250E-01  2.148438E+01  0.000000E+00
  3.906250E-01  2.187500E+01  0.000000E+00
  3.906250E-01  2.226562E+01  0.000000E+00
  3.906250E-01  2.265625E+01  0.000000E+00
  3.906250E-01  2.304688E+01  0.000000E+00
  3.906250E-01  2.343750E+01  0.000000E+00
  3.906250E-01  2.382812E+01  0.000000E+00
  3.906250E-01  2.421875E+01  0.000000E+00
  3.906250E-01  2.460938E+01  0.000000E+00
  7.812500E-01  0.000000E+00  0.000000E+00
  7.812500E-01  3.906250E-01  0.000000E+00
  7.812500E-01  7.812500E-01  0.000000E+00
  7.812500E-01  1.171875E+00  0.000000E+00
  7.812500E-01  1.562500E+00  0.000000E+00
  7.812500E-01  1.953125E+00  0.000000E+00
  7.812500E-01  2.343750E+00  0.000000E+00
  7.812500E-01  2.734375E+00  0.000000E+00
  7.812500E-01  3.125000E+00  0.000000E+00
  7.812500E-01  3.515625E+00  0.000000E+00
  7.812500E-01  3.906250E+00  0.000000E+00
  7.812500E-01  4.296875E+00  0.000000E+00
  7.812500E-01  4.687500E+00  0.000000E+00
  7.812500E-01  5.078125E+00  0.000000E+00
  7.812500E-01  5.468750E+00  0.000000E+00
  7.812500E-01  5.859375E+00  0.000000E+00
  7.812500E-01  6.250000E+00  0.000000E+00
  7.812500E-01  6.640625E+00  0.000000E+00
  7.812500E-01  7.031250E+00  0.000000E+00
  7.812500E-01  7.421875E+00  0.000000E+00
  7.812500E-01  7.812500E+00  0.000000E+00
  7.812500E-01  8.203125E+00  0.000000E+00
  7.812500E-01  8.593750E+00  0.000000E+00
  7.812500E-01  8.984375E+00  0.000000E+00
  7.812500E-01  9.375000E+00  0.000000E+00
  7.812500E-01  9.765625E+00  0.000000E+00
  7.812500E-01  1.015625E+01  0.000000E+00
  7.812500E-01  1.054688E+01  0.000000E+00
  7.812500E-01  1.093750E+01  0.000000E+00
  7.812500E-01  1.132812E+01  0.000000E+00
  7.812500E-01  1.171875E+01  0.000000E+00
  7.812500E-01  1.210938E+01  0.000000E+00
  7.812500E-01  1.250000E+01  0.000000E+00
  7.812500E-01  1.289062E+01  0.000000E+00
  7.812500E-01  1.328125E+01  0.000000E+00
  7.812500E-01  1.367188E+01  0.000000E+00
  7.812500E-01  1.406250E+01  0.000000E+00
  7.812500E-01  1.445312E+01  0.000000E+00
  7.812500E-01  1.484375E+01  0.000000E+00
  7.812500E-01  1.523438E+01  0.000000E+00
  7.812500E-01  1.562500E+01  0.000000E+00
  7.812500E-01  1.601562E+01  0.000000E+00
  7.812500E-01  1.640625E+01  0.000000E+00
  7.812500E-01  1.679688E+01  0.000000E+00
  7.812500E-01  1.718750E+01  0.000000E+00
  7.812500E-01  1.757812E+01  0.000000E+00
  7.812500E-01  1.796875E+01  0.000000E+00
  7.812500E-01  1.835938E+01  0.000000E+00
  7.812500E-01  1.875000E+01  0.000000E+00
  7.812500E-01  1.914062E+01  0.000000E+00
  7.812500E-01  1.953125E+01  0.000000E+00
  7.812500E-01  1.992188E+01  0.000000E+00
  7.812500E-01  2.031250E+01  0.000000E+00
  7.812500E-01  2.070312E+01  0.000000E+00
  7.812500E-01  2.109375E+01  0.000000E+00
  7.812500E-01  2.148438E+01  0.000000E+00
  7.812500E-01  2.187500E+01  0.000000E+00
  7.812500E-01  2.226562E+01  0.000000E+00
  7.812500E-01  2.265625E+01  0.000000E+00
  7.812500E-01  2.304688E+01  0.000000E+00
  7.812500E-01  2.343750E+01  0.000000E+00
  7.812500E-01  2.382812E+01  0.000000E+00
  7.812500E-01  2.421875E+01  0.000000E+00
  7.812500E-01  2.460938E+01  0.000000E+00
  1.171875E+00  0.000000E+00  0.000000E+00
  1.171875E+00  3.906250E-01  0.000000E+00
  1.171875E+00  7.812500E-01  0.000000E+00
  1.171875E+00  1.171875E+00  0.000000E+00
  1.171875E+00  1.562500E+00  0.000000E+00
  1.171875E+00  1.953125E+00  0.000000E+00
  1.171875E+00  2.343750E+00  0.000000E+00
  1.171875E+00  2.734375E+00  0.000000E+00
  1.171875E+00  3.125000E+00  0.000000E+00
  1.171875E+00  3.515625E+00  0.000000E+00
  1.171875E+00  3.906250E+00  0.000000E+00
  1.171875E+00  4.296875E+00  0.000000E+00
  1.171875E+00  4.687500E+00  0.000000E+00
  1.171875E+00  5.078125E+00  0.000000E+00
  1.171875E+00  5.468750E+00  0.000000E+00
  1.171875E+00  5.859375E+00  0.000000E+00
  1.171875E+00  6.250000E+00  0.000000E+00
  1.171875E+00  6.640625E+00  0.000000E+00
  1.171875E+00  7.031250E+00  0.000000E+00
  1.171875E+00  7.421875E+00  0.000000E+00
  1.171875E+00  7.812500E+00  0.000000E+00
  1.171875E+00  8.203125E+00  0.000000E+00
  1.171875E+00  8.593750E+00  0.000000E+00
  1.171875E+00  8.984375E+00  0.000000E+00
  1.171875E+00  9.375000E+00  0.000000E+00
  1.171875E+00  9.765625E+00  0.000000E+00
  1.171875E+00  1.015625E+01  0.000000E+00
  1.171875E+00  1.054688E+01  0.000000E+00
  1.171875E+00  1.093750E+01  0.000000E+00
  1.171875E+00  1.132812E+01  0.000000E+00
  1.171875E+00  1.171875E+01  0.000000E+00
  1.171875E+00  1.210938E+01  0.000000E+00
  1.171875E+00  1.250000E+01  0.000000E+00
  1.171875E+00  1.289062E+01  0.000000E+00
  1.171875E+00  1.328125E+01  0.000000E+00
  1.171875E+00  1.367188E+01  0.000000E+00
  1.171875E+00  1.406250E+01  0.000000E+00
  1.171875E+00  1.445312E+01  0.000000E+00
[...]
POINT_DATA   4096
SCALARS CON  float  1
LOOKUP_TABLE default
  4.695465E-01
  4.683423E-01
  4.705032E-01
  4.690813E-01
  4.708162E-01
  4.689161E-01
  4.702689E-01
  4.681731E-01
  4.695321E-01
  4.676016E-01
  4.692196E-01
  4.675854E-01
  4.695019E-01
  4.681458E-01
  4.702919E-01
  4.690716E-01
  4.712025E-01
  4.697690E-01
  4.714806E-01
  4.694713E-01
  4.705547E-01
  4.679973E-01
  4.687337E-01
  4.661008E-01
  4.670319E-01
  4.647959E-01
  4.662187E-01
  4.644621E-01
  4.662794E-01
  4.648095E-01
  4.668244E-01
  4.654973E-01
  4.676203E-01
  4.663558E-01
  4.684568E-01
  4.670403E-01
  4.688391E-01
  4.669991E-01
  4.683359E-01
  4.661136E-01
  4.672658E-01
  4.651345E-01
  4.666595E-01
  4.651077E-01
  4.672788E-01
  4.662720E-01
  4.687426E-01
  4.677161E-01
  4.698726E-01
  4.683567E-01
  4.700228E-01
  4.681825E-01
  4.697859E-01
  4.681293E-01
  4.700415E-01
  4.686420E-01
  4.706042E-01
  4.689848E-01
  4.705196E-01
  4.684297E-01
  4.696478E-01
  4.675384E-01
  4.690601E-01
  4.674734E-01
  4.712460E-01
  4.704037E-01
  4.714475E-01
  4.701078E-01
  4.705975E-01
  4.688285E-01
  4.691479E-01
  4.675090E-01
  4.682025E-01
  4.670623E-01
  4.682507E-01
  4.675117E-01
  4.689772E-01
  4.684069E-01
  4.699616E-01
  4.694113E-01
  4.708947E-01
  4.701409E-01
  4.712609E-01
  4.700007E-01
  4.705471E-01
  4.687668E-01
  4.689753E-01
  4.671316E-01
  4.675721E-01
  4.661952E-01
  4.672134E-01
  4.663768E-01
  4.677712E-01
  4.670780E-01
  4.683876E-01
  4.674499E-01
  4.684571E-01
  4.672563E-01
  4.681000E-01
  4.668437E-01
  4.677050E-01
  4.664862E-01
  4.673646E-01
  4.661383E-01
  4.670188E-01
  4.658586E-01
  4.669126E-01
  4.660363E-01
  4.674353E-01
  4.668766E-01
  4.684726E-01
  4.679339E-01
  4.693817E-01
  4.686015E-01
  4.698256E-01
  4.689374E-01
  4.702082E-01
  4.694805E-01
  4.709208E-01
  4.702511E-01
  4.715601E-01
  4.705768E-01
  4.714857E-01
  4.701621E-01
  4.709236E-01
  4.697037E-01
  4.707715E-01
  4.699208E-01
  4.681942E-01
  4.684862E-01
  4.693089E-01
  4.694204E-01
  4.697877E-01
  4.693527E-01
  4.692679E-01
  4.685965E-01
  4.685201E-01
  4.680537E-01
  4.682934E-01
  4.681744E-01
  4.687413E-01
  4.689028E-01
  4.696815E-01
  4.699499E-01
  4.706784E-01
  4.706900E-01
  4.709398E-01
  4.702946E-01
  4.698176E-01
  4.685247E-01
  4.676262E-01
  4.662360E-01
  4.655810E-01
  4.647082E-01
  4.647189E-01
  4.645189E-01
  4.650963E-01
  4.652968E-01
  4.661024E-01
  4.663858E-01
  4.671607E-01
  4.673148E-01
  4.678568E-01
  4.676654E-01
  4.677606E-01
  4.670725E-01
  4.667141E-01
  4.657310E-01
  4.653387E-01
  4.646339E-01
  4.648055E-01
  4.648421E-01
  4.657661E-01
  4.663864E-01
  4.675869E-01
  4.681250E-01
  4.689408E-01
  4.689410E-01
  4.692592E-01
  4.689700E-01
  4.692845E-01
  4.692309E-01
  4.698657E-01
  4.700158E-01
  4.705762E-01
  4.703270E-01
  4.702601E-01
  4.693646E-01
  4.688712E-01
  4.679392E-01
  4.678281E-01
  4.675706E-01
  4.695277E-01
  4.701921E-01
  4.698788E-01
  4.700874E-01
  4.692167E-01
  4.689626E-01
  4.678812E-01
  4.677311E-01
  4.670237E-01
  4.673968E-01
  4.672211E-01
  4.680284E-01
  4.681467E-01
  4.691199E-01
  4.693087E-01
  4.702736E-01
  4.703567E-01
  4.710759E-01
  4.707402E-01
  4.708809E-01
  4.698865E-01
  4.694228E-01
  4.680281E-01
  4.674818E-01
  4.663572E-01
  4.663734E-01
  4.659654E-01
  4.666780E-01
  4.667882E-01
  4.677435E-01
  4.678058E-01
  4.684838E-01
  4.681479E-01
  4.684214E-01
  4.677603E-01
  4.678252E-01
  4.670636E-01
  4.671031E-01
  4.663607E-01
  4.664566E-01
  4.658263E-01
  4.661182E-01
  4.657806E-01
  4.664371E-01
  4.664695E-01
  4.674119E-01
  4.675684E-01
  4.684444E-01
  4.683832E-01
  4.689885E-01
  4.687229E-01
  4.692792E-01
  4.691368E-01
  4.699194E-01
  4.699771E-01
  4.707996E-01
  4.706600E-01
  4.710687E-01
  4.704174E-01
  4.703893E-01
  4.695330E-01
  4.696047E-01
  4.691072E-01
  4.696463E-01
  4.663206E-01
  4.679380E-01
  4.675657E-01
  4.690668E-01
  4.682775E-01
  4.692420E-01
  4.679880E-01
  4.686925E-01
  4.674244E-01
  4.683196E-01
  4.673623E-01
  4.686051E-01
  4.679758E-01
  4.694968E-01
  4.690732E-01
  4.706904E-01
  4.701990E-01
  4.715310E-01
  4.705169E-01
  4.711319E-01
  4.693206E-01
  4.692204E-01
  4.669402E-01
  4.667312E-01
  4.647277E-01
  4.651117E-01
  4.638791E-01
  4.650506E-01
  4.644871E-01
  4.661307E-01
  4.658236E-01
  4.675310E-01
  4.671306E-01
  4.686133E-01
  4.678685E-01
  4.688979E-01
  4.676220E-01
  4.681093E-01
  4.663811E-01
  4.666181E-01
  4.649285E-01
  4.655199E-01
  4.644469E-01
  4.657877E-01
  4.654223E-01
  4.672578E-01
  4.670589E-01
  4.687114E-01
  4.680639E-01
  4.691667E-01
  4.680605E-01
  4.689471E-01
  4.679206E-01
  4.691138E-01
  4.684515E-01
  4.698620E-01
  4.691143E-01
  4.700999E-01
  4.686947E-01
  4.690069E-01
  4.671575E-01
  4.674306E-01
  4.659815E-01
  4.669709E-01
  4.677328E-01
  4.693856E-01
  4.681842E-01
  4.694845E-01
  4.678166E-01
  4.687105E-01
  4.668421E-01
  4.678070E-01
  4.662507E-01
  4.676670E-01
  4.665789E-01
  4.683862E-01
  4.675729E-01
  4.695478E-01
  4.688204E-01
  4.708059E-01
  4.699845E-01
  4.717203E-01
  4.704559E-01
  4.715708E-01
  4.695962E-01
  4.700598E-01
  4.676571E-01
  4.680398E-01
  4.659405E-01
  4.669447E-01
  4.656339E-01
  4.674041E-01
  4.666662E-01
  4.687106E-01
  4.679297E-01
  4.696759E-01
  4.684536E-01
  4.697359E-01
  4.681211E-01
  4.691306E-01
  4.673664E-01
  4.683274E-01
  4.665902E-01
  4.676416E-01
  4.660622E-01
  4.673457E-01
  4.660628E-01
  4.676677E-01
  4.666644E-01
  4.684330E-01
  4.674277E-01
  4.690305E-01
  4.677575E-01
  4.690958E-01
  4.676710E-01
  4.690376E-01
  4.678139E-01
  4.694691E-01
  4.684883E-01
  4.702127E-01
  4.690600E-01
  4.703983E-01
  4.687619E-01
  4.696838E-01
  4.678470E-01
  4.688567E-01
  4.673602E-01
  4.688296E-01
  4.648043E-01
  4.669910E-01
  4.661127E-01
  4.683317E-01
  4.671801E-01
  4.689607E-01
  4.673704E-01
  4.688403E-01
  4.671266E-01
  4.686517E-01
  4.671228E-01
  4.689063E-01
  4.676659E-01
  4.697357E-01
  4.687418E-01
  4.709613E-01
  4.699466E-01
  4.719074E-01
  4.703711E-01
  4.715953E-01
  4.692331E-01
  4.697190E-01
  4.668820E-01
  4.672751E-01
  4.647495E-01
  4.657782E-01
  4.640612E-01
  4.659004E-01
  4.648559E-01
  4.671524E-01
  4.663373E-01
  4.686644E-01
  4.677209E-01
  4.697891E-01
  4.684696E-01
  4.700585E-01
  4.681929E-01
  4.692413E-01
  4.669434E-01
  4.677744E-01
  4.655477E-01
  4.667465E-01
  4.651129E-01
  4.669918E-01
  4.659562E-01
  4.682006E-01
  4.672120E-01
  4.691919E-01
  4.677278E-01
  4.691848E-01
  4.673248E-01
  4.686388E-01
  4.669200E-01
  4.685806E-01
  4.672502E-01
  4.691511E-01
  4.677709E-01
  4.692986E-01
  4.673181E-01
  4.682155E-01
  4.658016E-01
  4.666334E-01
  4.645700E-01
  4.660742E-01
  4.666200E-01
  4.684298E-01
  4.670964E-01
  4.687385E-01
  4.671220E-01
  4.684853E-01
  4.667017E-01
  4.680660E-01
  4.664429E-01
  4.680691E-01
  4.667363E-01
  4.686274E-01
  4.675156E-01
  4.695904E-01
  4.686299E-01
  4.708014E-01
  4.698269E-01
  4.718046E-01
  4.704138E-01
  4.717746E-01
  4.696681E-01
  4.703766E-01
  4.678545E-01
  4.685080E-01
  4.663205E-01
  4.676190E-01
  4.662237E-01
  4.682670E-01
  4.674008E-01
  4.696615E-01
  4.686954E-01
  4.706114E-01
  4.691725E-01
  4.706081E-01
  4.687725E-01
  4.699406E-01
  4.679704E-01
  4.691156E-01
  4.672078E-01
  4.684827E-01
  4.667633E-01
  4.682757E-01
  4.668195E-01
  4.685775E-01
  4.672927E-01
  4.690974E-01
  4.677142E-01
  4.693018E-01
  4.676548E-01
  4.690279E-01
  4.673011E-01
  4.687681E-01
  4.672811E-01
  4.690450E-01
  4.677921E-01
  4.696218E-01
  4.682181E-01
  4.697106E-01
  4.678847E-01
  4.690082E-01
  4.669905E-01
  4.681634E-01
  4.664166E-01
  4.679848E-01
  4.641346E-01
  4.661495E-01
  4.654329E-01
  4.676766E-01
  4.668840E-01
  4.688269E-01
  4.676291E-01
  4.691785E-01
  4.676816E-01
  4.690672E-01
  4.675507E-01
  4.690523E-01
  4.677678E-01
  4.695820E-01
  4.686289E-01
  4.707025E-01
  4.698318E-01
  4.717238E-01
  4.703776E-01
  4.715552E-01
  4.693951E-01
  4.698483E-01
  4.672349E-01
  4.676211E-01
  4.653384E-01
  4.663605E-01
  4.648586E-01
  4.666343E-01
  4.657275E-01
  4.678776E-01
  4.671274E-01
  4.692570E-01
  4.683535E-01
  4.702227E-01
  4.689593E-01
  4.703776E-01
  4.686056E-01
  4.695288E-01
  4.673752E-01
  4.681296E-01
  4.660813E-01
  4.672087E-01
  4.657193E-01
  4.674535E-01
  4.664643E-01
  4.684672E-01
  4.674579E-01
  4.691796E-01
  4.677321E-01
  4.690061E-01
  4.672457E-01
  4.684362E-01
  4.668332E-01
  4.683439E-01
  4.670805E-01
  4.687904E-01
  4.674682E-01
  4.688342E-01
  4.669639E-01
  4.677447E-01
  4.654500E-01
  4.661257E-01
  4.641074E-01
  4.653838E-01
  4.663678E-01
  4.678008E-01
  4.668036E-01
  4.682413E-01
  4.671394E-01
  4.684239E-01
  4.671834E-01
  4.683864E-01
  4.671344E-01
  4.683865E-01
  4.672288E-01
  4.686141E-01
  4.676333E-01
  4.692412E-01
  4.685080E-01
  4.703316E-01
  4.696952E-01
  4.714090E-01
  4.704099E-01
  4.715376E-01
  4.698424E-01
  4.703356E-01
  4.682430E-01
  4.686946E-01
  4.669352E-01
  4.680061E-01
  4.669854E-01
  4.687236E-01
  4.681426E-01
  4.700129E-01
  4.692651E-01
  4.707509E-01
  4.695191E-01
  4.705374E-01
  4.689388E-01
  4.697312E-01
  4.680484E-01
  4.688755E-01
  4.673164E-01
  4.683294E-01
  4.669963E-01
  4.682519E-01
  4.671466E-01
  4.685758E-01
  4.675514E-01
  4.689466E-01
  4.677817E-01
  4.689740E-01
  4.676140E-01
  4.686928E-01
  4.673504E-01
  4.685817E-01
  4.674789E-01
  4.689513E-01
  4.679966E-01
  4.694551E-01
  4.683073E-01
  4.694351E-01
  4.679080E-01
  4.687153E-01
  4.670171E-01
  4.678486E-01
  4.663571E-01
  4.675126E-01
  4.642465E-01
  4.657958E-01
  4.654749E-01
  4.673640E-01
  4.670942E-01
  4.687769E-01
  4.681237E-01
  4.693475E-01
  4.682580E-01
  4.691494E-01
  4.678894E-01
  4.688032E-01
  4.677576E-01
  4.690359E-01
  4.684189E-01
  4.700683E-01
  4.696336E-01
  4.711760E-01
  4.703139E-01
  4.711704E-01
  4.695119E-01
  4.696554E-01
  4.675479E-01
  4.676158E-01
  4.658110E-01
  4.664642E-01
  4.653700E-01
  4.666964E-01
  4.661197E-01
  4.677583E-01
  4.672999E-01
  4.689057E-01
  4.683039E-01
  4.696749E-01
  4.687487E-01
  4.697121E-01
  4.683290E-01
  4.688573E-01
  4.671571E-01
  4.675753E-01
  4.660177E-01
  4.668096E-01
  4.657680E-01
  4.670872E-01
  4.664519E-01
  4.679634E-01
  4.672793E-01
  4.685455E-01
  4.675178E-01
  4.684617E-01
  4.672365E-01
  4.681626E-01
  4.670887E-01
  4.682614E-01
  4.674148E-01
  4.686775E-01
  4.677044E-01
  4.686152E-01
  4.671373E-01
  4.675273E-01
  4.656725E-01
  4.659609E-01
  4.643381E-01
  4.651574E-01
  4.667962E-01
  4.677446E-01
  4.671269E-01
  4.681015E-01
  4.674319E-01
  4.683046E-01
  4.675140E-01
  4.682729E-01
  4.673955E-01
  4.681106E-01
  4.672501E-01
  4.680633E-01
  4.673970E-01
  4.684948E-01
  4.681627E-01
  4.695642E-01
  4.694017E-01
  4.707450E-01
  4.702523E-01
  4.710288E-01
  4.698505E-01
  4.699934E-01
  4.684041E-01
  4.684719E-01
  4.671611E-01
  4.677772E-01
  4.671285E-01
  4.683437E-01
  4.680871E-01
  4.694142E-01
  4.689969E-01
  4.699642E-01
  4.690960E-01
  4.696295E-01
  4.684262E-01
  4.687668E-01
  4.675203E-01
  4.679483E-01
  4.668863E-01
  4.675563E-01
  4.667527E-01
  4.676562E-01
  4.670226E-01
  4.680029E-01
  4.673408E-01
  4.682015E-01
  4.673706E-01
  4.680743E-01
  4.671607E-01
  4.678981E-01
  4.671382E-01
  4.681091E-01
  4.675893E-01
  4.687245E-01
  4.682298E-01
  4.692284E-01
  4.684620E-01
  4.691205E-01
  4.680310E-01
  4.684607E-01
  4.672846E-01
  4.677784E-01
  4.667876E-01
  4.675327E-01
  4.649646E-01
  4.660176E-01
  4.660388E-01
  4.673537E-01
  4.673980E-01
  4.685131E-01
  4.681927E-01
  4.688618E-01
  4.681076E-01
  4.684437E-01
  4.675286E-01
  4.679176E-01
  4.672690E-01
  4.680879E-01
  4.679325E-01
  4.691745E-01
  4.692367E-01
  4.703930E-01
  4.700419E-01
  4.705238E-01
  4.693833E-01
  4.691474E-01
  4.675319E-01
  4.671678E-01
  4.657795E-01
  4.659156E-01
  4.651619E-01
  4.659226E-01
  4.656758E-01
  4.667753E-01
  4.666992E-01
  4.678261E-01
  4.676581E-01
  4.685842E-01
  4.681102E-01
  4.686419E-01
  4.677327E-01
  4.678683E-01
  4.666948E-01
  4.667712E-01
  4.657659E-01
  4.661949E-01
  4.656295E-01
  4.664660E-01
  4.661742E-01
  4.670984E-01
  4.667189E-01
  4.674434E-01
  4.668425E-01
  4.674092E-01
  4.667678E-01
  4.674185E-01
  4.669464E-01
  4.677793E-01
  4.674181E-01
  4.682217E-01
  4.676598E-01
  4.681123E-01
  4.671216E-01
  4.671751E-01
  4.659283E-01
  4.659531E-01
  4.649345E-01
  4.654077E-01
  4.677892E-01
  4.681881E-01
  4.678980E-01
  4.681584E-01
  4.677197E-01
  4.678501E-01
  4.673170E-01
  4.673957E-01
  4.668567E-01
  4.669808E-01
  4.665502E-01
  4.668606E-01
  4.667017E-01
  4.673552E-01
  4.675644E-01
  4.685319E-01
  4.689061E-01
  4.698086E-01
  4.698544E-01
  4.702031E-01
  4.695792E-01
  4.692976E-01
  4.682381E-01
  4.678225E-01
  4.669554E-01
  4.669948E-01
  4.667156E-01
  4.673212E-01
  4.674522E-01
  4.682315E-01
  4.682871E-01
  4.687895E-01
  4.684529E-01
  4.685468E-01
  4.678737E-01
  4.677645E-01
  4.670492E-01
  4.670522E-01
  4.665667E-01
  4.668590E-01
  4.666530E-01
  4.671485E-01
  4.670206E-01
  4.674517E-01
  4.671390E-01
  4.673242E-01
  4.667875E-01
  4.668535E-01
  4.663578E-01
  4.666322E-01
  4.664646E-01
  4.670966E-01
  4.672122E-01
  4.679686E-01
  4.680150E-01
  4.685340E-01
  4.682501E-01
  4.684447E-01
  4.679305E-01
  4.680383E-01
  4.675801E-01
  4.678428E-01
  4.675710E-01
  4.679862E-01
  4.662034E-01
  4.666007E-01
  4.669725E-01
  4.674135E-01
  4.676712E-01
  4.678680E-01
  4.678019E-01
  4.676582E-01
  4.673025E-01
  4.669838E-01
  4.666173E-01
  4.664761E-01
  4.664621E-01
  4.667917E-01
  4.672701E-01
  4.679933E-01
  4.686515E-01
  4.692646E-01
  4.695123E-01
  4.694807E-01
  4.689808E-01
  4.682608E-01
  4.672807E-01
  4.663831E-01
  4.655446E-01
  4.650498E-01
  4.647684E-01
  4.648666E-01
  4.651169E-01
  4.656257E-01
  4.661401E-01
  4.667609E-01
  4.672350E-01
  4.676655E-01
  4.678129E-01
  4.678198E-01
  4.675189E-01
  4.671469E-01
  4.666257E-01
  4.662435E-01
  4.659128E-01
  4.658505E-01
  4.658601E-01
  4.660517E-01
  4.661626E-01
  4.662985E-01
  4.662506E-01
  4.662119E-01
  4.660588E-01
  4.660367E-01
  4.660262E-01
  4.662306E-01
  4.664590E-01
  4.668378E-01
  4.671163E-01
  4.673943E-01
  4.674351E-01
  4.673899E-01
  4.670986E-01
  4.667949E-01
  4.663858E-01
  4.661379E-01
  4.659474E-01
  4.660298E-01
  4.692031E-01
  4.688204E-01
  4.689210E-01
  4.681742E-01
  4.679859E-01
  4.670707E-01
  4.668466E-01
  4.660140E-01
  4.659634E-01
  4.653676E-01
  4.655986E-01
  4.653202E-01
  4.658973E-01
  4.659771E-01
  4.668884E-01
  4.672221E-01
  4.682416E-01
  4.684841E-01
  4.691948E-01
  4.689453E-01
  4.690689E-01
  4.682604E-01
  4.679785E-01
  4.670100E-01
  4.668446E-01
  4.662309E-01
  4.665634E-01
  4.664658E-01
  4.672119E-01
  4.673380E-01
  4.680812E-01
  4.679948E-01
  4.683790E-01
  4.678792E-01
  4.678950E-01
  4.671570E-01
  4.671172E-01
  4.665129E-01
  4.667544E-01
  4.664969E-01
  4.670480E-01
  4.669672E-01
  4.675008E-01
  4.672030E-01
  4.673770E-01
  4.666831E-01
  4.665506E-01
  4.657469E-01
  4.657544E-01
  4.653192E-01
  4.658319E-01
  4.659039E-01
  4.667909E-01
  4.670137E-01
  4.678102E-01
  4.677599E-01
  4.682124E-01
  4.678704E-01
  4.681751E-01
  4.678585E-01
  4.683229E-01
  4.682127E-01
  4.688284E-01
  4.687353E-01
  4.676670E-01
  4.672026E-01
  4.679766E-01
  4.673716E-01
  4.679264E-01
  4.670650E-01
  4.673714E-01
  4.663119E-01
  4.665079E-01
  4.654560E-01
  4.657969E-01
  4.650286E-01
  4.657666E-01
  4.654539E-01
  4.666250E-01
  4.666305E-01
  4.679234E-01
  4.678069E-01
  4.687379E-01
  4.680796E-01
  4.683934E-01
  4.671666E-01
  4.670735E-01
  4.656747E-01
  4.656629E-01
  4.645636E-01
  4.649976E-01
  4.644047E-01
  4.653276E-01
  4.651458E-01
  4.663595E-01
  4.663182E-01
  4.675021E-01
  4.672569E-01
  4.680860E-01
  4.673948E-01
  4.677790E-01
  4.667476E-01
  4.669780E-01
  4.660068E-01
  4.664699E-01
  4.658050E-01
  4.665280E-01
  4.659809E-01
  4.666445E-01
  4.658984E-01
  4.663161E-01
  4.653873E-01
  4.657707E-01
  4.649871E-01
  4.656646E-01
  4.652463E-01
  4.662641E-01
  4.660759E-01
  4.671629E-01
  4.668770E-01
  4.677357E-01
  4.671572E-01
  4.677367E-01
  4.669607E-01
  4.674659E-01
  4.667432E-01
  4.673963E-01
  4.668581E-01
  4.705446E-01
  4.693365E-01
  4.697738E-01
  4.680985E-01
  4.682074E-01
  4.663917E-01
  4.665522E-01
  4.649469E-01
  4.654242E-01
  4.641889E-01
  4.650490E-01
  4.641853E-01
  4.653933E-01
  4.648433E-01
  4.663128E-01
  4.659436E-01
  4.674788E-01
  4.670324E-01
  4.683411E-01
  4.675444E-01
  4.684385E-01
  4.672457E-01
  4.678477E-01
  4.665325E-01
  4.672086E-01
  4.661431E-01
  4.671813E-01
  4.665001E-01
  4.678492E-01
  4.673275E-01
  4.686423E-01
  4.678954E-01
  4.688431E-01
  4.676734E-01
  4.682467E-01
  4.668478E-01
  4.674006E-01
  4.661998E-01
  4.671176E-01
  4.663451E-01
  4.676254E-01
  4.670316E-01
  4.682376E-01
  4.673209E-01
  4.680371E-01
  4.666029E-01
  4.669297E-01
  4.653595E-01
  4.658588E-01
  4.647357E-01
  4.658437E-01
  4.653343E-01
  4.669106E-01
  4.666263E-01
  4.681676E-01
  4.676520E-01
  4.688828E-01
  4.681025E-01
  4.692024E-01
  4.684465E-01
  4.696770E-01
  4.690610E-01
  4.703345E-01
  4.695895E-01
  4.686987E-01
  4.676044E-01
  4.685453E-01
  4.673117E-01
  4.680760E-01
  4.666606E-01
  4.672686E-01
  4.657484E-01
  4.663252E-01
  4.648657E-01
  4.656072E-01
  4.644158E-01
  4.655078E-01
  4.647041E-01
  4.661566E-01
  4.656156E-01
  4.671746E-01
  4.665554E-01
  4.678626E-01
  4.668682E-01
  4.677546E-01
  4.663799E-01
  4.669999E-01
  4.655167E-01
  4.661935E-01
  4.649075E-01
  4.658759E-01
  4.649237E-01
  4.662209E-01
  4.655527E-01
  4.670544E-01
  4.664791E-01
  4.679355E-01
  4.671661E-01
  4.682996E-01
  4.671377E-01
  4.679005E-01
  4.664886E-01
  4.671926E-01
  4.659244E-01
  4.669162E-01
  4.659688E-01
  4.671912E-01
  4.662962E-01
  4.673741E-01
  4.661946E-01
  4.669578E-01
  4.655534E-01
  4.662692E-01
  4.650233E-01
  4.660677E-01
  4.652389E-01
  4.666899E-01
  4.661687E-01
  4.677718E-01
  4.672313E-01
  4.686665E-01
  4.678622E-01
  4.690054E-01
  4.679460E-01
  4.689172E-01
  4.677846E-01
  4.687641E-01
  4.676800E-01
  4.711050E-01
  4.696122E-01
  4.699519E-01
  4.681019E-01
  4.682404E-01
  4.663692E-01
  4.666492E-01
  4.650356E-01
  4.656323E-01
  4.643461E-01
  4.652517E-01
  4.642464E-01
  4.654068E-01
  4.646321E-01
  4.659927E-01
  4.653706E-01
  4.668128E-01
  4.661819E-01
  4.675203E-01
  4.667079E-01
  4.678258E-01
  4.668058E-01
  4.677804E-01
  4.667176E-01
  4.677602E-01
  4.668563E-01
  4.681030E-01
  4.673877E-01
  4.687459E-01
  4.680171E-01
  4.692158E-01
  4.681948E-01
  4.690174E-01
  4.676147E-01
  4.681412E-01
  4.666106E-01
  4.672270E-01
  4.660009E-01
  4.670741E-01
  4.663463E-01
  4.678261E-01
  4.672955E-01
  4.686981E-01
  4.678258E-01
  4.687092E-01
  4.672824E-01
  4.677319E-01
  4.661163E-01
  4.666786E-01
  4.654499E-01
  4.665726E-01
  4.659367E-01
  4.675472E-01
  4.672001E-01
  4.688738E-01
  4.684054E-01
  4.698592E-01
  4.691678E-01
  4.704650E-01
  4.697033E-01
  4.709838E-01
  4.701915E-01
  4.713557E-01
  4.703164E-01
  4.686924E-01
  4.677411E-01
  4.682759E-01
  4.673904E-01
  4.679500E-01
  4.670401E-01
  4.675279E-01
  4.665129E-01
  4.668907E-01
  4.658005E-01
  4.661801E-01
  4.651986E-01
  4.657970E-01
  4.651134E-01
  4.660286E-01
  4.656085E-01
  4.666722E-01
  4.662539E-01
  4.671810E-01
  4.665330E-01
  4.672036E-01
  4.663391E-01
  4.668816E-01
  4.659949E-01
  4.666080E-01
  4.658511E-01
  4.666143E-01
  4.659983E-01
  4.668791E-01
  4.663546E-01
  4.672988E-01
  4.667986E-01
  4.677068E-01
  4.670897E-01
  4.677982E-01
  4.669300E-01
  4.674010E-01
  4.663885E-01
  4.668707E-01
  4.660399E-01
  4.668276E-01
  4.663298E-01
  4.673665E-01
  4.669494E-01
  4.678732E-01
  4.671916E-01
  4.677905E-01
  4.668299E-01
  4.672821E-01