# vtk DataFile Version 2.0
title
ASCII
DATASET STRUCTURED_GRID
DIMENSIONS   64   64    1
POINTS   4096  float
  0.000000E+00  0.000000E+00  0.000000E+00
  0.000000E+00  3.906250E-01  0.000000E+00
  0.000000E+00  7.812500E-01  0.000000E+00
  0.000000E+00  1.171875E+00  0.000000E+00
  0.000000E+00  1.562500E+00  0.000000E+00
  0.000000E+00  1.953125E+00  0.000000E+00
  0.000000E+00  2.343750E+00  0.000000E+00
  0.000000E+00  2.734375E+00  0.000000E+00
  0.000000E+00  3.125000E+00  0.000000E+00
  0.000000E+00  3.515625E+00  0.000000E+00
  0.000000E+00  3.906250E+00  0.000000E+00
  0.000000E+00  4.296875E+00  0.000000E+00
  0.000000E+00  4.687500E+00  0.000000E+00
  0.000000E+00  5.078125E+00  0.000000E+00
  0.000000E+00  5.468750E+00  0.000000E+00
  0.000000E+00  5.859375E+00  0.000000E+00
  0.000000E+00  6.250000E+00  0.000000E+00
  0.000000E+00  6.640625E+00  0.000000E+00
  0.000000E+00  7.031250E+00  0.000000E+00
  0.000000E+00  7.421875E+00  0.000000E+00
  0.000000E+00  7.812500E+00  0.000000E+00
  0.000000E+00  8.203125E+00  0.000000E+00
  0.000000E+00  8.593750E+00  0.000000E+00
  0.000000E+00  8.984375E+00  0.000000E+00
  0.000000E+00  9.375000E+00  0.000000E+00
  0.000000E+00  9.765625E+00  0.000000E+00
  0.000000E+00  1.015625E+01  0.000000E+00
  0.000000E+00  1.054688E+01  0.000000E+00
  0.000000E+00  1.093750E+01  0.000000E+00
  0.000000E+00  1.132812E+01  0.000000E+00
  0.000000E+00  1.171875E+01  0.000000E+00
  0.000000E+00  1.210938E+01  0.000000E+00
  0.000000E+00  1.250000E+01  0.000000E+00
  0.000000E+00  1.289062E+01  0.000000E+00
  0.000000E+00  1.328125E+01  0.000000E+00
  0.000000E+00  1.367188E+01  0.000000E+00
  0.000000E+00  1.406250E+01  0.000000E+00
  0.000000E+00  1.445312E+01  0.000000E+00
  0.000000E+00  1.484375E+01  0.000000E+00
  0.000000E+00  1.523438E+01  0.000000E+00
  0.000000E+00  1.562500E+01  0.000000E+00
  0.000000E+00  1.601562E+01  0.000000E+00
  0.000000E+00  1.640625E+01  0.000000E+00
  0.000000E+00  1.679688E+01  0.000000E+00
  0.000000E+00  1.718750E+01  0.000000E+00
  0.000000E+00  1.757812E+01  0.000000E+00
  0.000000E+00  1.796875E+01  0.000000E+00
  0.000000E+00  1.835938E+01  0.000000E+00
  0.000000E+00  1.875000E+01  0.000000E+00
  0.000000E+00  1.914062E+01  0.000000E+00
  0.000000E+00  1.953125E+01  0.000000E+00
  0.000000E+00  1.992188E+01  0.000000E+00
  0.000000E+00  2.031250E+01  0.000000E+00
  0.000000E+00  2.070312E+01  0.000000E+00
  0.000000E+00  2.109375E+01  0.000000E+00
  0.000000E+00  2.148438E+01  0.000000E+00
  0.000000E+00  2.187500E+01  0.000000E+00
  0.000000E+00  2.226562E+01  0.000000E+00
  0.000000E+00  2.265625E+01  0.000000E+00
  0.000000E+00  2.304688E+01  0.000000E+00
  0.000000E+00  2.343750E+01  0.000000E+00
  0.000000E+00  2.382812E+01  0.000000E+00
  0.000000E+00  2.421875E+01  0.000000E+00
  0.000000E+00  2.460938E+01  0.000000E+00
  3.906250E-01  0.000000E+00  0.000000E+00
  3.906250E-01  3.906250E-01  0.000000E+00
  3.906250E-01  7.812500E-01  0.000000E+00
  3.906250E-01  1.171875E+00  0.000000E+00
  3.906250E-01  1.562500E+00  0.000000E+00
  3.906250E-01  1.953125E+00  0.000000E+00
  3.906250E-01  2.343750E+00  0.000000E+00
  3.906250E-01  2.734375E+00  0.000000E+00
  3.906250E-01  3.125000E+00  0.000000E+00
  3.906250E-01  3.515625E+00  0.000000E+00
  3.906250E-01  3.906250E+00  0.000000E+00
  3.906250E-01  4.296875E+00  0.000000E+00
  3.906250E-01  4.687500E+00  0.000000E+00
  3.906250E-01  5.078125E+00  0.000000E+00
  3.906250E-01  5.468750E+00  0.000000E+00
  3.906250E-01  5.859375E+00  0.000000E+00
  3.906250E-01  6.250000E+00  0.000000E+00
  3.906250E-01  6.640625E+00  0.000000E+00
  3.906250E-01  7.031250E+00  0.000000E+00
  3.906250E-01  7.421875E+00  0.000000E+00
  3.906250E-01  7.812500E+00  0.000000E+00
  3.906250E-01  8.203125E+00  0.000000E+00
  3.906250E-01  8.593750E+00  0.000000E+00
  3.906250E-01  8.984375E+00  0.000000E+00
  3.906250E-01  9.375000E+00  0.000000E+00
  3.906250E-01  9.765625E+00  0.000000E+00
  3.906250E-01  1.015625E+01  0.000000E+00
  3.906250E-01  1.054688E+01  0.000000E+00
  3.906250E-01  1.093750E+01  0.000000E+00
  3.906250E-01  1.132812E+01  0.000000E+00
  3.906250E-01  1.171875E+01  0.000000E+00
  3.906250E-01  1.210938E+01  0.000000E+00
  3.906250E-01  1.250000E+01  0.000000E+00
  3.906250E-01  1.289062E+01  0.000000E+00
  3.906250E-01  1.328125E+01  0.000000E+00
  3.906250E-01  1.367188E+01  0.000000E+00
  3.906250E-01  1.406250E+01  0.000000E+00
  3.906250E-01  1.445312E+01  0.000000E+00
  3.906250E-01  1.484375E+01  0.000000E+00
  3.906250E-01  1.523438E+01  0.000000E+00
  3.906250E-01  1.562500E+01  0.000000E+00
  3.906250E-01  1.601562E+01  0.000000E+00
  3.906250E-01  1.640625E+01  0.000000E+00
  3.906250E-01  1.679688E+01  0.000000E+00
  3.906250E-01  1.718750E+01  0.000000E+00
  3.906250E-01  1.757812E+01  0.000000E+00
  3.906250E-01  1.796875E+01  0.000000E+00
  3.906250E-01  1.835938E+01  0.000000E+00
  3.906250E-01  1.875000E+01  0.000000E+00
  3.906250E-01  1.914062E+01  0.000000E+00
  3.906250E-01  1.953125E+01  0.000000E+00
  3.906250E-01  1.992188E+01  0.000000E+00
  3.906250E-01  2.031250E+01  0.000000E+00
  3.906250E-01  2.070312E+01  0.000000E+00
  3.906250E-01  2.109375E+01  0.000000E+00
  3.906250E-01  2.148438E+01  0.000000E+00
  3.906250E-01  2.187500E+01  0.000000E+00
  3.906250E-01  2.226562E+01  0.000000E+00
  3.906250E-01  2.265625E+01  0.000000E+00
  3.906250E-01  2.304688E+01  0.000000E+00
  3.906250E-01  2.343750E+01  0.000000E+00
  3.906250E-01  2.382812E+01  0.000000E+00
  3.906250E-01  2.421875E+01  0.000000E+00
  3.906250E-01  2.460938E+01  0.000000E+00
  7.812500E-01  0.000000E+00  0.000000E+00
  7.812500E-01  3.906250E-01  0.000000E+00
  7.812500E-01  7.812500E-01  0.000000E+00
  7.812500E-01  1.171875E+00  0.000000E+00
  7.812500E-01  1.562500E+00  0.000000E+00
  7.812500E-01  1.953125E+00  0.000000E+00
  7.812500E-01  2.343750E+00  0.000000E+00
  7.812500E-01  2.734375E+00  0.000000E+00
  7.812500E-01  3.125000E+00  0.000000E+00
  7.812500E-01  3.515625E+00  0.000000E+00
  7.812500E-01  3.906250E+00  0.000000E+00
  7.812500E-01  4.296875E+00  0.000000E+00
  7.812500E-01  4.687500E+00  0.000000E+00
  7.812500E-01  5.078125E+00  0.000000E+00
  7.812500E-01  5.468750E+00  0.000000E+00
  7.812500E-01  5.859375E+00  0.000000E+00
  7.812500E-01  6.250000E+00  0.000000E+00
  7.812500E-01  6.640625E+00  0.000000E+00
  7.812500E-01  7.031250E+00  0.000000E+00
  7.812500E-01  7.421875E+00  0.000000E+00
  7.812500E-01  7.812500E+00  0.000000E+00
  7.812500E-01  8.203125E+00  0.000000E+00
  7.812500E-01  8.593750E+00  0.000000E+00
  7.812500E-01  8.984375E+00  0.000000E+00
  7.812500E-01  9.375000E+00  0.000000E+00
  7.812500E-01  9.765625E+00  0.000000E+00
  7.812500E-01  1.015625E+01  0.000000E+00
  7.812500E-01  1.054688E+01  0.000000E+00
  7.812500E-01  1.093750E+01  0.000000E+00
  7.812500E-01  1.132812E+01  0.000000E+00
  7.812500E-01  1.171875E+01  0.000000E+00
  7.812500E-01  1.210938E+01  0.000000E+00
  7.812500E-01  1.250000E+01  0.000000E+00
  7.812500E-01  1.289062E+01  0.000000E+00
  7.812500E-01  1.328125E+01  0.000000E+00
  7.812500E-01  1.367188E+01  0.000000E+00
  7.812500E-01  1.406250E+01  0.000000E+00
  7.812500E-01  1.445312E+01  0.000000E+00
  7.812500E-01  1.484375E+01  0.000000E+00
  7.812500E-01  1.523438E+01  0.000000E+00
  7.812500E-01  1.562500E+01  0.000000E+00
  7.812500E-01  1.601562E+01  0.000000E+00
  7.812500E-01  1.640625E+01  0.000000E+00
  7.812500E-01  1.679688E+01  0.000000E+00
  7.812500E-01  1.718750E+01  0.000000E+00
  7.812500E-01  1.757812E+01  0.000000E+00
  7.812500E-01  1.796875E+01  0.000000E+00
  7.812500E-01  1.835938E+01  0.000000E+00
  7.812500E-01  1.875000E+01  0.000000E+00
  7.812500E-01  1.914062E+01  0.000000E+00
  7.812500E-01  1.953125E+01  0.000000E+00
  7.812500E-01  1.992188E+01  0.000000E+00
  7.812500E-01  2.031250E+01  0.000000E+00
  7.812500E-01  2.070312E+01  0.000000E+00
  7.812500E-01  2.109375E+01  0.000000E+00
  7.812500E-01  2.148438E+01  0.000000E+00
  7.812500E-01  2.187500E+01  0.000000E+00
  7.812500E-01  2.226562E+01  0.000000E+00
  7.812500E-01  2.265625E+01  0.000000E+00
  7.812500E-01  2.304688E+01  0.000000E+00
  7.812500E-01  2.343750E+01  0.000000E+00
  7.812500E-01  2.382812E+01  0.000000E+00
  7.812500E-01  2.421875E+01  0.000000E+00
  7.812500E-01  2.460938E+01  0.000000E+00
  1.171875E+00  0.000000E+00  0.000000E+00
  1.171875E+00  3.906250E-01  0.000000E+00
  1.171875E+00  7.812500E-01  0.000000E+00
  1.171875E+00  1.171875E+00  0.000000E+00
  1.171875E+00  1.562500E+00  0.000000E+00
  1.171875E+00  1.953125E+00  0.000000E+00
  1.171875E+00  2.343750E+00  0.000000E+00
  1.171875E+00  2.734375E+00  0.000000E+00
  1.171875E+00  3.125000E+00  0.000000E+00
  1.171875E+00  3.515625E+00  0.000000E+00
  1.171875E+00  3.906250E+00  0.000000E+00
  1.171875E+00  4.296875E+00  0.000000E+00
  1.171875E+00  4.687500E+00  0.000000E+00
  1.171875E+00  5.078125E+00  0.000000E+00
  1.171875E+00  5.468750E+00  0.000000E+00
  1.171875E+00  5.859375E+00  0.000000E+00
  1.171875E+00  6.250000E+00  0.000000E+00
  1.171875E+00  6.640625E+00  0.000000E+00
  1.171875E+00  7.031250E+00  0.000000E+00
  1.171875E+00  7.421875E+00  0.000000E+00
  1.171875E+00  7.812500E+00  0.000000E+00
  1.171875E+00  8.203125E+00  0.000000E+00
  1.171875E+00  8.593750E+00  0.000000E+00
  1.171875E+00  8.984375E+00  0.000000E+00
  1.171875E+00  9.375000E+00  0.000000E+00
  1.171875E+00  9.765625E+00  0.000000E+00
  1.171875E+00  1.015625E+01  0.000000E+00
  1.171875E+00  1.054688E+01  0.000000E+00
  1.171875E+00  1.093750E+01  0.000000E+00
  1.171875E+00  1.132812E+01  0.000000E+00
  1.171875E+00  1.171875E+01  0.000000E+00
  1.171875E+00  1.210938E+01  0.000000E+00
  1.171875E+00  1.250000E+01  0.000000E+00
  1.171875E+00  1.289062E+01  0.000000E+00
  1.171875E+00  1.328125E+01  0.000000E+00
  1.171875E+00  1.367188E+01  0.000000E+00
  1.171875E+00  1.406250E+01  0.000000E+00
  1.171875E+00  1.445312E+01  0.000000E+00
[...]
POINT_DATA   4096
SCALARS CON  float  1
LOOKUP_TABLE default
  4.695329E-01
  4.684023E-01
  4.706922E-01
  4.692641E-01
  4.710141E-01
  4.690173E-01
  4.703543E-01
  4.681898E-01
  4.695882E-01
  4.676313E-01
  4.692929E-01
  4.676004E-01
  4.695177E-01
  4.680814E-01
  4.702464E-01
  4.689995E-01
  4.712137E-01
  4.697972E-01
  4.715924E-01
  4.695540E-01
  4.706464E-01
  4.679874E-01
  4.686918E-01
  4.659653E-01
  4.669193E-01
  4.646703E-01
  4.661916E-01
  4.644641E-01
  4.663741E-01
  4.648859E-01
  4.669278E-01
  4.655279E-01
  4.676567E-01
  4.663351E-01
  4.684796E-01
  4.670411E-01
  4.688936E-01
  4.670076E-01
  4.683468E-01
  4.660192E-01
  4.671302E-01
  4.648846E-01
  4.664038E-01
  4.648152E-01
  4.670844E-01
  4.661449E-01
  4.687857E-01
  4.678384E-01
  4.701055E-01
  4.685530E-01
  4.701996E-01
  4.682325E-01
  4.698086E-01
  4.681086E-01
  4.701340E-01
  4.688232E-01
  4.709549E-01
  4.693687E-01
  4.709209E-01
  4.686771E-01
  4.697706E-01
  4.674712E-01
  4.689510E-01
  4.673353E-01
  4.712926E-01
  4.705404E-01
  4.716770E-01
  4.703213E-01
  4.707737E-01
  4.688938E-01
  4.691547E-01
  4.674582E-01
  4.681865E-01
  4.670718E-01
  4.683277E-01
  4.675860E-01
  4.690520E-01
  4.684143E-01
  4.699439E-01
  4.693525E-01
  4.708733E-01
  4.701429E-01
  4.713319E-01
  4.700768E-01
  4.706317E-01
  4.687805E-01
  4.689393E-01
  4.670086E-01
  4.674323E-01
  4.660392E-01
  4.671248E-01
  4.663421E-01
  4.678375E-01
  4.671849E-01
  4.685406E-01
  4.675650E-01
  4.685426E-01
  4.672557E-01
  4.680620E-01
  4.667491E-01
  4.676206E-01
  4.663842E-01
  4.672824E-01
  4.660130E-01
  4.668668E-01
  4.656243E-01
  4.666486E-01
  4.657384E-01
  4.671991E-01
  4.667108E-01
  4.684447E-01
  4.679914E-01
  4.695228E-01
  4.687270E-01
  4.699330E-01
  4.689756E-01
  4.702502E-01
  4.695422E-01
  4.710992E-01
  4.705271E-01
  4.719491E-01
  4.709673E-01
  4.718327E-01
  4.703559E-01
  4.709853E-01
  4.696267E-01
  4.706738E-01
  4.698452E-01
  4.681291E-01
  4.685824E-01
  4.695140E-01
  4.696734E-01
  4.699869E-01
  4.694635E-01
  4.692689E-01
  4.685434E-01
  4.684490E-01
  4.680230E-01
  4.682961E-01
  4.682102E-01
  4.687625E-01
  4.689053E-01
  4.696480E-01
  4.699198E-01
  4.706642E-01
  4.707308E-01
  4.710171E-01
  4.704017E-01
  4.698978E-01
  4.685592E-01
  4.675782E-01
  4.661301E-01
  4.654295E-01
  4.645698E-01
  4.646114E-01
  4.644775E-01
  4.650976E-01
  4.653359E-01
  4.661340E-01
  4.664087E-01
  4.671535E-01
  4.673052E-01
  4.678410E-01
  4.676679E-01
  4.677553E-01
  4.670538E-01
  4.666339E-01
  4.655817E-01
  4.650937E-01
  4.643253E-01
  4.644535E-01
  4.645182E-01
  4.655089E-01
  4.662556E-01
  4.675777E-01
  4.682310E-01
  4.690889E-01
  4.690811E-01
  4.693202E-01
  4.689560E-01
  4.692135E-01
  4.691943E-01
  4.699250E-01
  4.702361E-01
  4.709269E-01
  4.707512E-01
  4.706301E-01
  4.695978E-01
  4.689018E-01
  4.678103E-01
  4.676098E-01
  4.673931E-01
  4.695065E-01
  4.703470E-01
  4.700767E-01
  4.703247E-01
  4.693304E-01
  4.689891E-01
  4.677476E-01
  4.675731E-01
  4.668321E-01
  4.673098E-01
  4.671761E-01
  4.680850E-01
  4.681786E-01
  4.691676E-01
  4.692755E-01
  4.702568E-01
  4.703104E-01
  4.711147E-01
  4.707943E-01
  4.710139E-01
  4.699772E-01
  4.695074E-01
  4.679938E-01
  4.674037E-01
  4.661749E-01
  4.662078E-01
  4.657793E-01
  4.665873E-01
  4.667263E-01
  4.677835E-01
  4.678395E-01
  4.685576E-01
  4.681500E-01
  4.684185E-01
  4.676749E-01
  4.677569E-01
  4.669518E-01
  4.670404E-01
  4.662607E-01
  4.663820E-01
  4.656742E-01
  4.659604E-01
  4.655476E-01
  4.662441E-01
  4.662786E-01
  4.673392E-01
  4.675416E-01
  4.685215E-01
  4.684350E-01
  4.690449E-01
  4.686715E-01
  4.692078E-01
  4.690078E-01
  4.698776E-01
  4.699951E-01
  4.709761E-01
  4.708820E-01
  4.713457E-01
  4.705839E-01
  4.704650E-01
  4.694241E-01
  4.694365E-01
  4.688817E-01
  4.695343E-01
  4.661909E-01
  4.680271E-01
  4.677061E-01
  4.692966E-01
  4.683813E-01
  4.692870E-01
  4.678461E-01
  4.685330E-01
  4.671894E-01
  4.681900E-01
  4.672377E-01
  4.685983E-01
  4.679307E-01
  4.695090E-01
  4.690100E-01
  4.706927E-01
  4.701716E-01
  4.716219E-01
  4.706028E-01
  4.713112E-01
  4.694238E-01
  4.693262E-01
  4.668956E-01
  4.666604E-01
  4.645328E-01
  4.649583E-01
  4.636814E-01
  4.649560E-01
  4.643724E-01
  4.661060E-01
  4.657461E-01
  4.675145E-01
  4.670536E-01
  4.686137E-01
  4.678359E-01
  4.689606E-01
  4.676431E-01
  4.681870E-01
  4.663596E-01
  4.665980E-01
  4.647793E-01
  4.653821E-01
  4.642309E-01
  4.656616E-01
  4.653009E-01
  4.672865E-01
  4.671068E-01
  4.688672E-01
  4.681468E-01
  4.692429E-01
  4.679674E-01
  4.688097E-01
  4.676582E-01
  4.689249E-01
  4.682872E-01
  4.698916E-01
  4.692047E-01
  4.703130E-01
  4.688131E-01
  4.690714E-01
  4.670062E-01
  4.672151E-01
  4.656591E-01
  4.667680E-01
  4.676699E-01
  4.695046E-01
  4.683067E-01
  4.696604E-01
  4.678431E-01
  4.686742E-01
  4.666237E-01
  4.675871E-01
  4.659734E-01
  4.675197E-01
  4.664565E-01
  4.683991E-01
  4.675510E-01
  4.695795E-01
  4.687626E-01
  4.708029E-01
  4.699443E-01
  4.718031E-01
  4.705419E-01
  4.717634E-01
  4.697188E-01
  4.701870E-01
  4.676243E-01
  4.679682E-01
  4.657263E-01
  4.667600E-01
  4.653994E-01
  4.672852E-01
  4.665519E-01
  4.687234E-01
  4.679196E-01
  4.697421E-01
  4.684445E-01
  4.697693E-01
  4.680748E-01
  4.691485E-01
  4.673375E-01
  4.683871E-01
  4.666040E-01
  4.677202E-01
  4.660594E-01
  4.673810E-01
  4.660168E-01
  4.676905E-01
  4.666533E-01
  4.685296E-01
  4.674953E-01
  4.691645E-01
  4.677847E-01
  4.691041E-01
  4.675158E-01
  4.688637E-01
  4.675396E-01
  4.692809E-01
  4.683060E-01
  4.701814E-01
  4.690308E-01
  4.704486E-01
  4.687054E-01
  4.696074E-01
  4.676187E-01
  4.686412E-01
  4.670944E-01
  4.687087E-01
  4.646633E-01
  4.670142E-01
  4.661835E-01
  4.684742E-01
  4.672360E-01
  4.689714E-01
  4.672425E-01
  4.686950E-01
  4.669272E-01
  4.685298E-01
  4.670080E-01
  4.688757E-01
  4.676059E-01
  4.697142E-01
  4.686711E-01
  4.709520E-01
  4.699422E-01
  4.720167E-01
  4.705004E-01
  4.717971E-01
  4.693661E-01
  4.698206E-01
  4.668373E-01
  4.671789E-01
  4.645501E-01
  4.656133E-01
  4.638855E-01
  4.658229E-01
  4.647852E-01
  4.671569E-01
  4.663085E-01
  4.686819E-01
  4.677048E-01
  4.698458E-01
  4.685277E-01
  4.702086E-01
  4.683308E-01
  4.694242E-01
  4.670503E-01
  4.678713E-01
  4.655448E-01
  4.667510E-01
  4.650702E-01
  4.670252E-01
  4.660023E-01
  4.683516E-01
  4.673604E-01
  4.693853E-01
  4.678274E-01
  4.692320E-01
  4.672056E-01
  4.684475E-01
  4.666092E-01
  4.683027E-01
  4.669839E-01
  4.690291E-01
  4.677095E-01
  4.693474E-01
  4.673232E-01
  4.682000E-01
  4.656425E-01
  4.664303E-01
  4.642891E-01
  4.658772E-01
  4.665668E-01
  4.684557E-01
  4.671581E-01
  4.688137E-01
  4.671469E-01
  4.684541E-01
  4.665985E-01
  4.679421E-01
  4.663213E-01
  4.680027E-01
  4.667119E-01
  4.686445E-01
  4.675203E-01
  4.695773E-01
  4.685790E-01
  4.707597E-01
  4.698143E-01
  4.718704E-01
  4.705384E-01
  4.719443E-01
  4.698086E-01
  4.704551E-01
  4.678226E-01
  4.683923E-01
  4.661392E-01
  4.674456E-01
  4.660880E-01
  4.682186E-01
  4.674238E-01
  4.697572E-01
  4.688130E-01
  4.707400E-01
  4.692722E-01
  4.706944E-01
  4.688349E-01
  4.700152E-01
  4.680508E-01
  4.692252E-01
  4.673186E-01
  4.685997E-01
  4.668537E-01
  4.683568E-01
  4.668819E-01
  4.686598E-01
  4.673916E-01
  4.692364E-01
  4.678579E-01
  4.694379E-01
  4.677258E-01
  4.690252E-01
  4.671975E-01
  4.686019E-01
  4.670710E-01
  4.688560E-01
  4.676404E-01
  4.695423E-01
  4.681805E-01
  4.697053E-01
  4.678558E-01
  4.689476E-01
  4.668702E-01
  4.680186E-01
  4.662608E-01
  4.678764E-01
  4.640042E-01
  4.660621E-01
  4.654439E-01
  4.677165E-01
  4.669678E-01
  4.688764E-01
  4.676806E-01
  4.691884E-01
  4.677121E-01
  4.690779E-01
  4.675857E-01
  4.690465E-01
  4.677541E-01
  4.695091E-01
  4.685649E-01
  4.706341E-01
  4.698446E-01
  4.717871E-01
  4.705276E-01
  4.717010E-01
  4.695301E-01
  4.698785E-01
  4.671947E-01
  4.674845E-01
  4.652050E-01
  4.662382E-01
  4.648354E-01
  4.666692E-01
  4.658466E-01
  4.679936E-01
  4.672560E-01
  4.693368E-01
  4.684445E-01
  4.703014E-01
  4.690968E-01
  4.705295E-01
  4.688029E-01
  4.696889E-01
  4.675130E-01
  4.681772E-01
  4.660921E-01
  4.671604E-01
  4.656990E-01
  4.674483E-01
  4.665442E-01
  4.685835E-01
  4.676386E-01
  4.693401E-01
  4.678798E-01
  4.690567E-01
  4.672293E-01
  4.683091E-01
  4.666746E-01
  4.681537E-01
  4.669601E-01
  4.687295E-01
  4.675254E-01
  4.689363E-01
  4.671092E-01
  4.678261E-01
  4.654730E-01
  4.660301E-01
  4.639662E-01
  4.651971E-01
  4.663085E-01
  4.677173E-01
  4.667984E-01
  4.682246E-01
  4.671932E-01
  4.684485E-01
  4.672647E-01
  4.684361E-01
  4.672459E-01
  4.684655E-01
  4.673492E-01
  4.686599E-01
  4.676713E-01
  4.691751E-01
  4.684472E-01
  4.702264E-01
  4.696803E-01
  4.714216E-01
  4.705347E-01
  4.716469E-01
  4.699729E-01
  4.703519E-01
  4.682197E-01
  4.685624E-01
  4.668333E-01
  4.679007E-01
  4.670085E-01
  4.687985E-01
  4.683424E-01
  4.702096E-01
  4.695056E-01
  4.709110E-01
  4.696731E-01
  4.705985E-01
  4.690136E-01
  4.697492E-01
  4.681134E-01
  4.688995E-01
  4.673818E-01
  4.683348E-01
  4.670257E-01
  4.682198E-01
  4.671590E-01
  4.685629E-01
  4.676191E-01
  4.690070E-01
  4.679114E-01
  4.690573E-01
  4.677142E-01
  4.687022E-01
  4.673587E-01
  4.685153E-01
  4.674560E-01
  4.689101E-01
  4.680472E-01
  4.695118E-01
  4.684492E-01
  4.695497E-01
  4.680582E-01
  4.687863E-01
  4.670831E-01
  4.678152E-01
  4.663238E-01
  4.674088E-01
  4.640903E-01
  4.656264E-01
  4.654142E-01
  4.673373E-01
  4.671848E-01
  4.688808E-01
  4.683094E-01
  4.695065E-01
  4.684578E-01
  4.692787E-01
  4.680127E-01
  4.688138E-01
  4.677390E-01
  4.689161E-01
  4.683224E-01
  4.699535E-01
  4.696283E-01
  4.712072E-01
  4.704525E-01
  4.712836E-01
  4.696343E-01
  4.696604E-01
  4.675183E-01
  4.674950E-01
  4.657423E-01
  4.664140E-01
  4.654563E-01
  4.668238E-01
  4.663370E-01
  4.679255E-01
  4.674647E-01
  4.689674E-01
  4.683675E-01
  4.696853E-01
  4.688228E-01
  4.697694E-01
  4.684405E-01
  4.689016E-01
  4.671905E-01
  4.674954E-01
  4.659236E-01
  4.666455E-01
  4.656633E-01
  4.669892E-01
  4.664673E-01
  4.680023E-01
  4.674109E-01
  4.686529E-01
  4.676592E-01
  4.685256E-01
  4.672999E-01
  4.681422E-01
  4.670933E-01
  4.682349E-01
  4.674796E-01
  4.687702E-01
  4.679168E-01
  4.688373E-01
  4.674132E-01
  4.677155E-01
  4.658157E-01
  4.659488E-01
  4.642671E-01
  4.649747E-01
  4.667071E-01
  4.676327E-01
  4.670617E-01
  4.680574E-01
  4.674646E-01
  4.683694E-01
  4.676480E-01
  4.684165E-01
  4.675741E-01
  4.682546E-01
  4.673777E-01
  4.681055E-01
  4.673878E-01
  4.683985E-01
  4.680565E-01
  4.694496E-01
  4.693676E-01
  4.707686E-01
  4.703688E-01
  4.711533E-01
  4.699760E-01
  4.700329E-01
  4.683901E-01
  4.683810E-01
  4.670846E-01
  4.677202E-01
  4.671697E-01
  4.684429E-01
  4.682661E-01
  4.695870E-01
  4.691670E-01
  4.700573E-01
  4.691479E-01
  4.696034E-01
  4.683865E-01
  4.686884E-01
  4.674616E-01
  4.678676E-01
  4.668250E-01
  4.674642E-01
  4.666752E-01
  4.675565E-01
  4.669606E-01
  4.679485E-01
  4.673473E-01
  4.682204E-01
  4.674331E-01
  4.681165E-01
  4.672132E-01
  4.679122E-01
  4.671685E-01
  4.681289E-01
  4.676634E-01
  4.688198E-01
  4.683913E-01
  4.693984E-01
  4.686659E-01
  4.692919E-01
  4.681970E-01
  4.685633E-01
  4.673612E-01
  4.677805E-01
  4.667624E-01
  4.674444E-01
  4.648017E-01
  4.658893E-01
  4.659535E-01
  4.673460E-01
  4.674511E-01
  4.686371E-01
  4.683502E-01
  4.690470E-01
  4.682718E-01
  4.685764E-01
  4.675861E-01
  4.679074E-01
  4.671787E-01
  4.679641E-01
  4.677987E-01
  4.690960E-01
  4.692283E-01
  4.704820E-01
  4.701866E-01
  4.706970E-01
  4.695129E-01
  4.692138E-01
  4.675072E-01
  4.670960E-01
  4.656872E-01
  4.658682E-01
  4.651653E-01
  4.659894E-01
  4.657541E-01
  4.668429E-01
  4.667078E-01
  4.677921E-01
  4.675843E-01
  4.685227E-01
  4.680664E-01
  4.686377E-01
  4.677285E-01
  4.678511E-01
  4.666194E-01
  4.666508E-01
  4.655990E-01
  4.660349E-01
  4.654930E-01
  4.663965E-01
  4.661575E-01
  4.671416E-01
  4.667805E-01
  4.675201E-01
  4.668988E-01
  4.674576E-01
  4.667910E-01
  4.674449E-01
  4.669701E-01
  4.678346E-01
  4.674985E-01
  4.683519E-01
  4.678148E-01
  4.682924E-01
  4.672787E-01
  4.672968E-01
  4.659705E-01
  4.659253E-01
  4.648265E-01
  4.652644E-01
  4.677405E-01
  4.681832E-01
  4.678615E-01
  4.681736E-01
  4.677174E-01
  4.679122E-01
  4.673658E-01
  4.675004E-01
  4.669262E-01
  4.670737E-01
  4.665707E-01
  4.668721E-01
  4.666255E-01
  4.672830E-01
  4.674498E-01
  4.684907E-01
  4.688945E-01
  4.699169E-01
  4.699911E-01
  4.704054E-01
  4.697193E-01
  4.694089E-01
  4.682238E-01
  4.677689E-01
  4.668178E-01
  4.668908E-01
  4.666011E-01
  4.672877E-01
  4.674176E-01
  4.682544E-01
  4.682686E-01
  4.687897E-01
  4.683875E-01
  4.684943E-01
  4.677637E-01
  4.676819E-01
  4.669231E-01
  4.669636E-01
  4.664427E-01
  4.667821E-01
  4.665547E-01
  4.671147E-01
  4.669808E-01
  4.674815E-01
  4.671511E-01
  4.673775E-01
  4.667858E-01
  4.668613E-01
  4.662993E-01
  4.666002E-01
  4.664079E-01
  4.671167E-01
  4.672451E-01
  4.680858E-01
  4.681162E-01
  4.686636E-01
  4.683021E-01
  4.684809E-01
  4.678769E-01
  4.679897E-01
  4.674825E-01
  4.677917E-01
  4.674978E-01
  4.679666E-01
  4.661361E-01
  4.666200E-01
  4.669701E-01
  4.674842E-01
  4.677056E-01
  4.679633E-01
  4.678491E-01
  4.677509E-01
  4.673252E-01
  4.670251E-01
  4.665643E-01
  4.664308E-01
  4.663348E-01
  4.667108E-01
  4.671663E-01
  4.680008E-01
  4.686868E-01
  4.694286E-01
  4.696779E-01
  4.697082E-01
  4.691198E-01
  4.683758E-01
  4.672530E-01
  4.663252E-01
  4.653836E-01
  4.649236E-01
  4.646005E-01
  4.647681E-01
  4.649777E-01
  4.655361E-01
  4.659926E-01
  4.666676E-01
  4.671135E-01
  4.676371E-01
  4.677794E-01
  4.678680E-01
  4.675152E-01
  4.671623E-01
  4.665412E-01
  4.661692E-01
  4.657741E-01
  4.657852E-01
  4.657914E-01
  4.660872E-01
  4.661830E-01
  4.663772E-01
  4.662569E-01
  4.662329E-01
  4.659936E-01
  4.660030E-01
  4.659417E-01
  4.662145E-01
  4.664163E-01
  4.668686E-01
  4.671076E-01
  4.674344E-01
  4.674068E-01
  4.673847E-01
  4.670086E-01
  4.667253E-01
  4.662445E-01
  4.660440E-01
  4.658161E-01
  4.659781E-01
  4.692917E-01
  4.689634E-01
  4.690014E-01
  4.682562E-01
  4.679826E-01
  4.670738E-01
  4.667867E-01
  4.659876E-01
  4.658955E-01
  4.653437E-01
  4.655330E-01
  4.652925E-01
  4.658241E-01
  4.659483E-01
  4.668355E-01
  4.672475E-01
  4.682781E-01
  4.686195E-01
  4.693332E-01
  4.691406E-01
  4.691989E-01
  4.683712E-01
  4.679633E-01
  4.669478E-01
  4.666674E-01
  4.660500E-01
  4.663278E-01
  4.662874E-01
  4.670280E-01
  4.672424E-01
  4.679920E-01
  4.679885E-01
  4.683590E-01
  4.679114E-01
  4.678781E-01
  4.671604E-01
  4.670521E-01
  4.664681E-01
  4.666625E-01
  4.664631E-01
  4.670097E-01
  4.670189E-01
  4.675552E-01
  4.673225E-01
  4.674454E-01
  4.667485E-01
  4.665048E-01
  4.656690E-01
  4.655809E-01
  4.651725E-01
  4.656732E-01
  4.658501E-01
  4.667674E-01
  4.670829E-01
  4.678450E-01
  4.677931E-01
  4.681235E-01
  4.677338E-01
  4.679310E-01
  4.676383E-01
  4.680981E-01
  4.681091E-01
  4.687795E-01
  4.688130E-01
  4.677471E-01
  4.673288E-01
  4.680914E-01
  4.674694E-01
  4.679677E-01
  4.670713E-01
  4.673276E-01
  4.662531E-01
  4.664205E-01
  4.653697E-01
  4.656931E-01
  4.649371E-01
  4.656743E-01
  4.653976E-01
  4.665950E-01
  4.666597E-01
  4.679905E-01
  4.679274E-01
  4.688707E-01
  4.682225E-01
  4.684948E-01
  4.672255E-01
  4.670528E-01
  4.655979E-01
  4.655199E-01
  4.643984E-01
  4.648074E-01
  4.642292E-01
  4.651544E-01
  4.650088E-01
  4.662481E-01
  4.662714E-01
  4.675083E-01
  4.673384E-01
  4.681996E-01
  4.675276E-01
  4.678673E-01
  4.667870E-01
  4.669428E-01
  4.659458E-01
  4.664012E-01
  4.657905E-01
  4.665608E-01
  4.660709E-01
  4.667306E-01
  4.659590E-01
  4.662951E-01
  4.653006E-01
  4.656145E-01
  4.648214E-01
  4.655043E-01
  4.651410E-01
  4.661966E-01
  4.660571E-01
  4.671443E-01
  4.668541E-01
  4.676633E-01
  4.670494E-01
  4.675763E-01
  4.667923E-01
  4.672971E-01
  4.666300E-01
  4.673392E-01
  4.668876E-01
  4.707534E-01
  4.695191E-01
  4.699379E-01
  4.681561E-01
  4.682066E-01
  4.662880E-01
  4.664272E-01
  4.647735E-01
  4.652848E-01
  4.640450E-01
  4.649652E-01
  4.641052E-01
  4.653680E-01
  4.648095E-01
  4.663222E-01
  4.659384E-01
  4.675171E-01
  4.670592E-01
  4.684107E-01
  4.675921E-01
  4.685069E-01
  4.672611E-01
  4.678513E-01
  4.664589E-01
  4.671151E-01
  4.659846E-01
  4.670351E-01
  4.663362E-01
  4.677520E-01
  4.672631E-01
  4.686781E-01
  4.679700E-01
  4.689914E-01
  4.678051E-01
  4.683817E-01
  4.669013E-01
  4.674194E-01
  4.661397E-01
  4.670664E-01
  4.662859E-01
  4.676484E-01
  4.670949E-01
  4.683859E-01
  4.674611E-01
  4.681751E-01
  4.666339E-01
  4.668815E-01
  4.651778E-01
  4.656341E-01
  4.644670E-01
  4.656468E-01
  4.651952E-01
  4.668971E-01
  4.666584E-01
  4.682524E-01
  4.676763E-01
  4.688602E-01
  4.679640E-01
  4.690273E-01
  4.682283E-01
  4.695313E-01
  4.689786E-01
  4.703912E-01
  4.697146E-01
  4.688422E-01
  4.677013E-01
  4.686889E-01
  4.673448E-01
  4.681098E-01
  4.665685E-01
  4.671921E-01
  4.655800E-01
  4.662107E-01
  4.646916E-01
  4.655103E-01
  4.642755E-01
  4.654564E-01
  4.646169E-01
  4.661597E-01
  4.655763E-01
  4.672126E-01
  4.665352E-01
  4.679053E-01
  4.668422E-01
  4.677846E-01
  4.663364E-01
  4.670088E-01
  4.654509E-01
  4.661826E-01
  4.648277E-01
  4.658590E-01
  4.648469E-01
  4.662181E-01
  4.655067E-01
  4.671069E-01
  4.665170E-01
  4.680923E-01
  4.673044E-01
  4.685178E-01
  4.672673E-01
  4.680304E-01
  4.664728E-01
  4.671709E-01
  4.658095E-01
  4.668873E-01
  4.659392E-01
  4.672988E-01
  4.663886E-01
  4.675285E-01
  4.662298E-01
  4.669653E-01
  4.654019E-01
  4.661127E-01
  4.647796E-01
  4.659103E-01
  4.650729E-01
  4.666547E-01
  4.661301E-01
  4.678374E-01
  4.672488E-01
  4.687397E-01
  4.678468E-01
  4.690224E-01
  4.678748E-01
  4.689040E-01
  4.677273E-01
  4.688127E-01
  4.677168E-01
  4.713074E-01
  4.697185E-01
  4.700878E-01
  4.680840E-01
  4.682258E-01
  4.662102E-01
  4.665314E-01
  4.648253E-01
  4.655144E-01
  4.641749E-01
  4.651945E-01
  4.641394E-01
  4.654026E-01
  4.645581E-01
  4.659992E-01
  4.652889E-01
  4.668017E-01
  4.660835E-01
  4.675028E-01
  4.666182E-01
  4.678311E-01
  4.667470E-01
  4.678165E-01
  4.666822E-01
  4.678089E-01
  4.668253E-01
  4.681562E-01
  4.673731E-01
  4.688380E-01
  4.680676E-01
  4.693912E-01
  4.683265E-01
  4.692444E-01
  4.677425E-01
  4.682968E-01
  4.666094E-01
  4.672275E-01
  4.658642E-01
  4.670029E-01
  4.662277E-01
  4.678599E-01
  4.673356E-01
  4.688901E-01
  4.679665E-01
  4.689039E-01
  4.673183E-01
  4.677405E-01
  4.659381E-01
  4.665074E-01
  4.651778E-01
  4.664175E-01
  4.657808E-01
  4.675693E-01
  4.672280E-01
  4.690348E-01
  4.684945E-01
  4.699991E-01
  4.691770E-01
  4.705079E-01
  4.696427E-01
  4.710154E-01
  4.701848E-01
  4.714866E-01
  4.704161E-01
  4.687660E-01
  4.677486E-01
  4.683473E-01
  4.673703E-01
  4.679722E-01
  4.669639E-01
  4.675027E-01
  4.664057E-01
  4.668482E-01
  4.656823E-01
  4.661278E-01
  4.650727E-01
  4.657441E-01
  4.649981E-01
  4.659961E-01
  4.655159E-01
  4.666561E-01
  4.661669E-01
  4.671623E-01
  4.664432E-01
  4.671916E-01
  4.662727E-01
  4.669116E-01
  4.659862E-01
  4.667038E-01
  4.659051E-01
  4.667576E-01
  4.660749E-01
  4.670178E-01
  4.664082E-01
  4.674137E-01
  4.668454E-01
  4.678385E-01
  4.671652E-01
  4.679431E-01
  4.669742E-01
  4.674578E-01
  4.663044E-01
  4.668023E-01
  4.658854E-01
  4.667784E-01
  4.662826E-01
  4.674732E-01
  4.670455E-01
  4.680547E-01
  4.672674E-01
  4.678686E-01
  4.667611E-01
  4.672248E-01