# vtk DataFile Version 2.0
title
ASCII
DATASET STRUCTURED_GRID
DIMENSIONS   64   64    1
POINTS   4096  float
  0.000000E+00  0.000000E+00  0.000000E+00
  0.000000E+00  3.906250E-01  0.000000E+00
  0.000000E+00  7.812500E-01  0.000000E+00
  0.000000E+00  1.171875E+00  0.000000E+00
  0.000000E+00  1.562500E+00  0.000000E+00
  0.000000E+00  1.953125E+00  0.000000E+00
  0.000000E+00  2.343750E+00  0.000000E+00
  0.000000E+00  2.734375E+00  0.000000E+00
  0.000000E+00  3.125000E+00  0.000000E+00
  0.000000E+00  3.515625E+00  0.000000E+00
  0.000000E+00  3.906250E+00  0.000000E+00
  0.000000E+00  4.296875E+00  0.000000E+00
  0.000000E+00  4.687500E+00  0.000000E+00
  0.000000E+00  5.078125E+00  0.000000E+00
  0.000000E+00  5.468750E+00  0.000000E+00
  0.000000E+00  5.859375E+00  0.000000E+00
  0.000000E+00  6.250000E+00  0.000000E+00
  0.000000E+00  6.640625E+00  0.000000E+00
  0.000000E+00  7.031250E+00  0.000000E+00
  0.000000E+00  7.421875E+00  0.000000E+00
  0.000000E+00  7.812500E+00  0.000000E+00
  0.000000E+00  8.203125E+00  0.000000E+00
  0.000000E+00  8.593750E+00  0.000000E+00
  0.000000E+00  8.984375E+00  0.000000E+00
  0.000000E+00  9.375000E+00  0.000000E+00
  0.000000E+00  9.765625E+00  0.000000E+00
  0.000000E+00  1.015625E+01  0.000000E+00
  0.000000E+00  1.054688E+01  0.000000E+00
  0.000000E+00  1.093750E+01  0.000000E+00
  0.000000E+00  1.132812E+01  0.000000E+00
  0.000000E+00  1.171875E+01  0.000000E+00
  0.000000E+00  1.210938E+01  0.000000E+00
  0.000000E+00  1.250000E+01  0.000000E+00
  0.000000E+00  1.289062E+01  0.000000E+00
  0.000000E+00  1.328125E+01  0.000000E+00
  0.000000E+00  1.367188E+01  0.000000E+00
  0.000000E+00  1.406250E+01  0.000000E+00
  0.000000E+00  1.445312E+01  0.000000E+00
  0.000000E+00  1.484375E+01  0.000000E+00
  0.000000E+00  1.523438E+01  0.000000E+00
  0.000000E+00  1.562500E+01  0.000000E+00
  0.000000E+00  1.601562E+01  0.000000E+00
  0.000000E+00  1.640625E+01  0.000000E+00
  0.000000E+00  1.679688E+01  0.000000E+00
  0.000000E+00  1.718750E+01  0.000000E+00
  0.000000E+00  1.757812E+01  0.000000E+00
  0.000000E+00  1.796875E+01  0.000000E+00
  0.000000E+00  1.835938E+01  0.000000E+00
  0.000000E+00  1.875000E+01  0.000000E+00
  0.000000E+00  1.914062E+01  0.000000E+00
  0.000000E+00  1.953125E+01  0.000000E+00
  0.000000E+00  1.992188E+01  0.000000E+00
  0.000000E+00  2.031250E+01  0.000000E+00
  0.000000E+00  2.070312E+01  0.000000E+00
  0.000000E+00  2.109375E+01  0.000000E+00
  0.000000E+00  2.148438E+01  0.000000E+00
  0.000000E+00  2.187500E+01  0.000000E+00
  0.000000E+00  2.226562E+01  0.000000E+00
  0.000000E+00  2.265625E+01  0.000000E+00
  0.000000E+00  2.304688E+01  0.000000E+00
  0.000000E+00  2.343750E+01  0.000000E+00
  0.000000E+00  2.382812E+01  0.000000E+00
  0.000000E+00  2.421875E+01  0.000000E+00
  0.000000E+00  2.460938E+01  0.000000E+00
  3.906250E-01  0.000000E+00  0.000000E+00
  3.906250E-01  3.906250E-01  0.000000E+00
  3.906250E-01  7.812500E-01  0.000000E+00
  3.906250E-01  1.171875E+00  0.000000E+00
  3.906250E-01  1.562500E+00  0.000000E+00
  3.906250E-01  1.953125E+00  0.000000E+00
  3.906250E-01  2.343750E+00  0.000000E+00
  3.906250E-01  2.734375E+00  0.000000E+00
  3.906250E-01  3.125000E+00  0.000000E+00
  3.906250E-01  3.515625E+00  0.000000E+00
  3.906250E-01  3.906250E+00  0.000000E+00
  3.906250E-01  4.296875E+00  0.000000E+00
  3.906250E-01  4.687500E+00  0.000000E+00
  3.906250E-01  5.078125E+00  0.000000E+00
  3.906250E-01  5.468750E+00  0.000000E+00
  3.906250E-01  5.859375E+00  0.000000E+00
  3.906250E-01  6.250000E+00  0.000000E+00
  3.906250E-01  6.640625E+00  0.000000E+00
  3.906250E-01  7.031250E+00  0.000000E+00
  3.906250E-01  7.421875E+00  0.000000E+00
  3.906250E-01  7.812500E+00  0.000000E+00
  3.906250E-01  8.203125E+00  0.000000E+00
  3.906250E-01  8.593750E+00  0.000000E+00
  3.906250E-01  8.984375E+00  0.000000E+00
  3.906250E-01  9.375000E+00  0.000000E+00
  3.906250E-01  9.765625E+00  0.000000E+00
  3.906250E-01  1.015625E+01  0.000000E+00
  3.906250E-01  1.054688E+01  0.000000E+00
  3.906250E-01  1.093750E+01  0.000000E+00
  3.906250E-01  1.132812E+01  0.000000E+00
  3.906250E-01  1.171875E+01  0.000000E+00
  3.906250E-01  1.210938E+01  0.000000E+00
  3.906250E-01  1.250000E+01  0.000000E+00
  3.906250E-01  1.289062E+01  0.000000E+00
  3.906250E-01  1.328125E+01  0.000000E+00
  3.906250E-01  1.367188E+01  0.000000E+00
  3.906250E-01  1.406250E+01  0.000000E+00
  3.906250E-01  1.445312E+01  0.000000E+00
  3.906250E-01  1.484375E+01  0.000000E+00
  3.906250E-01  1.523438E+01  0.000000E+00
  3.906250E-01  1.562500E+01  0.000000E+00
  3.906250E-01  1.601562E+01  0.000000E+00
  3.906250E-01  1.640625E+01  0.000000E+00
  3.906250E-01  1.679688E+01  0.000000E+00
  3.906250E-01  1.718750E+01  0.000000E+00
  3.906250E-01  1.757812E+01  0.000000E+00
  3.906250E-01  1.796875E+01  0.000000E+00
  3.906250E-01  1.835938E+01  0.000000E+00
  3.906250E-01  1.875000E+01  0.000000E+00
  3.906250E-01  1.914062E+01  0.000000E+00
  3.906250E-01  1.953125E+01  0.000000E+00
  3.906250E-01  1.992188E+01  0.000000E+00
  3.906250E-01  2.031250E+01  0.000000E+00
  3.906250E-01  2.070312E+01  0.000000E+00
  3.906250E-01  2.109375E+01  0.000000E+00
  3.906250E-01  2.148438E+01  0.000000E+00
  3.906250E-01  2.187500E+01  0.000000E+00
  3.906250E-01  2.226562E+01  0.000000E+00
  3.906250E-01  2.265625E+01  0.000000E+00
  3.906250E-01  2.304688E+01  0.000000E+00
  3.906250E-01  2.343750E+01  0.000000E+00
  3.906250E-01  2.382812E+01  0.000000E+00
  3.906250E-01  2.421875E+01  0.000000E+00
  3.906250E-01  2.460938E+01  0.000000E+00
  7.812500E-01  0.000000E+00  0.000000E+00
  7.812500E-01  3.906250E-01  0.000000E+00
  7.812500E-01  7.812500E-01  0.000000E+00
  7.812500E-01  1.171875E+00  0.000000E+00
  7.812500E-01  1.562500E+00  0.000000E+00
  7.812500E-01  1.953125E+00  0.000000E+00
  7.812500E-01  2.343750E+00  0.000000E+00
  7.812500E-01  2.734375E+00  0.000000E+00
  7.812500E-01  3.125000E+00  0.000000E+00
  7.812500E-01  3.515625E+00  0.000000E+00
  7.812500E-01  3.906250E+00  0.000000E+00
  7.812500E-01  4.296875E+00  0.000000E+00
  7.812500E-01  4.687500E+00  0.000000E+00
  7.812500E-01  5.078125E+00  0.000000E+00
  7.812500E-01  5.468750E+00  0.000000E+00
  7.812500E-01  5.859375E+00  0.000000E+00
  7.812500E-01  6.250000E+00  0.000000E+00
  7.812500E-01  6.640625E+00  0.000000E+00
  7.812500E-01  7.031250E+00  0.000000E+00
  7.812500E-01  7.421875E+00  0.000000E+00
  7.812500E-01  7.812500E+00  0.000000E+00
  7.812500E-01  8.203125E+00  0.000000E+00
  7.812500E-01  8.593750E+00  0.000000E+00
  7.812500E-01  8.984375E+00  0.000000E+00
  7.812500E-01  9.375000E+00  0.000000E+00
  7.812500E-01  9.765625E+00  0.000000E+00
  7.812500E-01  1.015625E+01  0.000000E+00
  7.812500E-01  1.054688E+01  0.000000E+00
  7.812500E-01  1.093750E+01  0.000000E+00
  7.812500E-01  1.132812E+01  0.000000E+00
  7.812500E-01  1.171875E+01  0.000000E+00
  7.812500E-01  1.210938E+01  0.000000E+00
  7.812500E-01  1.250000E+01  0.000000E+00
  7.812500E-01  1.289062E+01  0.000000E+00
  7.812500E-01  1.328125E+01  0.000000E+00
  7.812500E-01  1.367188E+01  0.000000E+00
  7.812500E-01  1.406250E+01  0.000000E+00
  7.812500E-01  1.445312E+01  0.000000E+00
  7.812500E-01  1.484375E+01  0.000000E+00
  7.812500E-01  1.523438E+01  0.000000E+00
  7.812500E-01  1.562500E+01  0.000000E+00
  7.812500E-01  1.601562E+01  0.000000E+00
  7.812500E-01  1.640625E+01  0.000000E+00
  7.812500E-01  1.679688E+01  0.000000E+00
  7.812500E-01  1.718750E+01  0.000000E+00
  7.812500E-01  1.757812E+01  0.000000E+00
  7.812500E-01  1.796875E+01  0.000000E+00
  7.812500E-01  1.835938E+01  0.000000E+00
  7.812500E-01  1.875000E+01  0.000000E+00
  7.812500E-01  1.914062E+01  0.000000E+00
  7.812500E-01  1.953125E+01  0.000000E+00
  7.812500E-01  1.992188E+01  0.000000E+00
  7.812500E-01  2.031250E+01  0.000000E+00
  7.812500E-01  2.070312E+01  0.000000E+00
  7.812500E-01  2.109375E+01  0.000000E+00
  7.812500E-01  2.148438E+01  0.000000E+00
  7.812500E-01  2.187500E+01  0.000000E+00
  7.812500E-01  2.226562E+01  0.000000E+00
  7.812500E-01  2.265625E+01  0.000000E+00
  7.812500E-01  2.304688E+01  0.000000E+00
  7.812500E-01  2.343750E+01  0.000000E+00
  7.812500E-01  2.382812E+01  0.000000E+00
  7.812500E-01  2.421875E+01  0.000000E+00
  7.812500E-01  2.460938E+01  0.000000E+00
  1.171875E+00  0.000000E+00  0.000000E+00
  1.171875E+00  3.906250E-01  0.000000E+00
  1.171875E+00  7.812500E-01  0.000000E+00
  1.171875E+00  1.171875E+00  0.000000E+00
  1.171875E+00  1.562500E+00  0.000000E+00
  1.171875E+00  1.953125E+00  0.000000E+00
  1.171875E+00  2.343750E+00  0.000000E+00
  1.171875E+00  2.734375E+00  0.000000E+00
  1.171875E+00  3.125000E+00  0.000000E+00
  1.171875E+00  3.515625E+00  0.000000E+00
  1.171875E+00  3.906250E+00  0.000000E+00
  1.171875E+00  4.296875E+00  0.000000E+00
  1.171875E+00  4.687500E+00  0.000000E+00
  1.171875E+00  5.078125E+00  0.000000E+00
  1.171875E+00  5.468750E+00  0.000000E+00
  1.171875E+00  5.859375E+00  0.000000E+00
  1.171875E+00  6.250000E+00  0.000000E+00
  1.171875E+00  6.640625E+00  0.000000E+00
  1.171875E+00  7.031250E+00  0.000000E+00
  1.171875E+00  7.421875E+00  0.000000E+00
  1.171875E+00  7.812500E+00  0.000000E+00
  1.171875E+00  8.203125E+00  0.000000E+00
  1.171875E+00  8.593750E+00  0.000000E+00
  1.171875E+00  8.984375E+00  0.000000E+00
  1.171875E+00  9.375000E+00  0.000000E+00
  1.171875E+00  9.765625E+00  0.000000E+00
  1.171875E+00  1.015625E+01  0.000000E+00
  1.171875E+00  1.054688E+01  0.000000E+00
  1.171875E+00  1.093750E+01  0.000000E+00
  1.171875E+00  1.132812E+01  0.000000E+00
  1.171875E+00  1.171875E+01  0.000000E+00
  1.171875E+00  1.210938E+01  0.000000E+00
  1.171875E+00  1.250000E+01  0.000000E+00
  1.171875E+00  1.289062E+01  0.000000E+00
  1.171875E+00  1.328125E+01  0.000000E+00
  1.171875E+00  1.367188E+01  0.000000E+00
  1.171875E+00  1.406250E+01  0.000000E+00
  1.171875E+00  1.445312E+01  0.000000E+00
[...]
POINT_DATA   4096
SCALARS CON  float  1
LOOKUP_TABLE default
  4.701344E-01
  4.693563E-01
  4.733947E-01
  4.716152E-01
  4.725533E-01
  4.681623E-01
  4.694467E-01
  4.679351E-01
  4.716867E-01
  4.699188E-01
  4.713024E-01
  4.675466E-01
  4.688814E-01
  4.664490E-01
  4.691671E-01
  4.677567E-01
  4.713642E-01
  4.703735E-01
  4.730821E-01
  4.698594E-01
  4.703111E-01
  4.661670E-01
  4.671008E-01
  4.638509E-01
  4.652978E-01
  4.623505E-01
  4.647308E-01
  4.638545E-01
  4.686222E-01
  4.684711E-01
  4.710610E-01
  4.672418E-01
  4.679315E-01
  4.657084E-01
  4.696113E-01
  4.687309E-01
  4.707878E-01
  4.668109E-01
  4.672422E-01
  4.638843E-01
  4.658560E-01
  4.633991E-01
  4.653353E-01
  4.626868E-01
  4.649660E-01
  4.632633E-01
  4.670342E-01
  4.673265E-01
  4.726698E-01
  4.721959E-01
  4.736020E-01
  4.681635E-01
  4.672713E-01
  4.639832E-01
  4.681692E-01
  4.697300E-01
  4.758949E-01
  4.755467E-01
  4.770610E-01
  4.722425E-01
  4.720324E-01
  4.682550E-01
  4.698601E-01
  4.673371E-01
  4.710159E-01
  4.710939E-01
  4.755205E-01
  4.749730E-01
  4.749713E-01
  4.693385E-01
  4.679860E-01
  4.656541E-01
  4.688187E-01
  4.683993E-01
  4.705405E-01
  4.686236E-01
  4.703923E-01
  4.684508E-01
  4.695391E-01
  4.671167E-01
  4.694342E-01
  4.694973E-01
  4.730657E-01
  4.714006E-01
  4.713482E-01
  4.669995E-01
  4.669973E-01
  4.647797E-01
  4.669119E-01
  4.654050E-01
  4.671833E-01
  4.657004E-01
  4.686173E-01
  4.684117E-01
  4.710973E-01
  4.688855E-01
  4.694406E-01
  4.667078E-01
  4.682151E-01
  4.663308E-01
  4.676907E-01
  4.653833E-01
  4.670224E-01
  4.653556E-01
  4.667639E-01
  4.637011E-01
  4.638759E-01
  4.611735E-01
  4.631286E-01
  4.623567E-01
  4.659448E-01
  4.670924E-01
  4.724660E-01
  4.730448E-01
  4.741523E-01
  4.691500E-01
  4.679614E-01
  4.661099E-01
  4.710359E-01
  4.736484E-01
  4.785041E-01
  4.769299E-01
  4.763393E-01
  4.713926E-01
  4.710807E-01
  4.687318E-01
  4.705689E-01
  4.687620E-01
  4.658985E-01
  4.697303E-01
  4.747419E-01
  4.757890E-01
  4.745688E-01
  4.700247E-01
  4.676530E-01
  4.663653E-01
  4.682281E-01
  4.689915E-01
  4.704167E-01
  4.699302E-01
  4.705328E-01
  4.695712E-01
  4.697255E-01
  4.687478E-01
  4.698531E-01
  4.703020E-01
  4.719359E-01
  4.712178E-01
  4.706843E-01
  4.682557E-01
  4.673362E-01
  4.656380E-01
  4.657736E-01
  4.647889E-01
  4.652074E-01
  4.645252E-01
  4.655977E-01
  4.654797E-01
  4.662371E-01
  4.650684E-01
  4.654238E-01
  4.655378E-01
  4.679076E-01
  4.685613E-01
  4.690725E-01
  4.669956E-01
  4.661397E-01
  4.645370E-01
  4.645017E-01
  4.626682E-01
  4.617477E-01
  4.599564E-01
  4.608317E-01
  4.618630E-01
  4.653872E-01
  4.682760E-01
  4.723476E-01
  4.734715E-01
  4.732260E-01
  4.696021E-01
  4.675609E-01
  4.665381E-01
  4.695990E-01
  4.727848E-01
  4.767425E-01
  4.770069E-01
  4.755750E-01
  4.706957E-01
  4.669290E-01
  4.631162E-01
  4.624640E-01
  4.624378E-01
  4.662698E-01
  4.709892E-01
  4.742758E-01
  4.764472E-01
  4.732251E-01
  4.690543E-01
  4.641862E-01
  4.636964E-01
  4.643376E-01
  4.673881E-01
  4.687145E-01
  4.709768E-01
  4.710778E-01
  4.715541E-01
  4.695125E-01
  4.689282E-01
  4.681482E-01
  4.703131E-01
  4.713028E-01
  4.726286E-01
  4.709635E-01
  4.700357E-01
  4.679800E-01
  4.682201E-01
  4.675292E-01
  4.681780E-01
  4.667645E-01
  4.664100E-01
  4.649427E-01
  4.659720E-01
  4.663935E-01
  4.682150E-01
  4.677015E-01
  4.678242E-01
  4.662292E-01
  4.663061E-01
  4.652891E-01
  4.662855E-01
  4.663591E-01
  4.677897E-01
  4.665873E-01
  4.654698E-01
  4.627476E-01
  4.629645E-01
  4.634638E-01
  4.660631E-01
  4.668641E-01
  4.689756E-01
  4.698178E-01
  4.716255E-01
  4.702813E-01
  4.688970E-01
  4.664881E-01
  4.679248E-01
  4.702728E-01
  4.746153E-01
  4.758735E-01
  4.759292E-01
  4.722490E-01
  4.692068E-01
  4.653774E-01
  4.643936E-01
  4.631926E-01
  4.646522E-01
  4.631890E-01
  4.698078E-01
  4.715765E-01
  4.743746E-01
  4.698132E-01
  4.678106E-01
  4.627775E-01
  4.640445E-01
  4.632328E-01
  4.673844E-01
  4.675187E-01
  4.710460E-01
  4.695154E-01
  4.710520E-01
  4.681968E-01
  4.698162E-01
  4.682549E-01
  4.712706E-01
  4.700980E-01
  4.723292E-01
  4.699068E-01
  4.710489E-01
  4.677231E-01
  4.681100E-01
  4.645849E-01
  4.656426E-01
  4.631721E-01
  4.648746E-01
  4.626453E-01
  4.649209E-01
  4.637783E-01
  4.668025E-01
  4.653963E-01
  4.677015E-01
  4.660716E-01
  4.685560E-01
  4.666587E-01
  4.683234E-01
  4.658587E-01
  4.674762E-01
  4.647035E-01
  4.654240E-01
  4.624004E-01
  4.648933E-01
  4.649528E-01
  4.693137E-01
  4.684977E-01
  4.704418E-01
  4.679372E-01
  4.695120E-01
  4.667675E-01
  4.675902E-01
  4.646084E-01
  4.668284E-01
  4.664010E-01
  4.707224E-01
  4.706916E-01
  4.734142E-01
  4.702903E-01
  4.695714E-01
  4.640798E-01
  4.630252E-01
  4.593932E-01
  4.620621E-01
  4.664698E-01
  4.710083E-01
  4.705598E-01
  4.731066E-01
  4.681612E-01
  4.666209E-01
  4.608601E-01
  4.620974E-01
  4.606307E-01
  4.653694E-01
  4.655820E-01
  4.701655E-01
  4.686632E-01
  4.706158E-01
  4.669365E-01
  4.686783E-01
  4.670272E-01
  4.714650E-01
  4.709654E-01
  4.741179E-01
  4.709458E-01
  4.717279E-01
  4.673006E-01
  4.678459E-01
  4.640494E-01
  4.659674E-01
  4.636052E-01
  4.661704E-01
  4.639356E-01
  4.674133E-01
  4.671410E-01
  4.717060E-01
  4.696422E-01
  4.703550E-01
  4.655333E-01
  4.666337E-01
  4.644385E-01
  4.681771E-01
  4.672192E-01
  4.703360E-01
  4.670453E-01
  4.675864E-01
  4.641085E-01
  4.679887E-01
  4.687998E-01
  4.736790E-01
  4.709451E-01
  4.709734E-01
  4.661429E-01
  4.674299E-01
  4.645831E-01
  4.665452E-01
  4.637854E-01
  4.668391E-01
  4.659710E-01
  4.699736E-01
  4.681699E-01
  4.702578E-01
  4.670938E-01
  4.689900E-01
  4.662635E-01
  4.683982E-01
  4.655443E-01
  4.679148E-01
  4.647246E-01
  4.686847E-01
  4.681906E-01
  4.704681E-01
  4.670426E-01
  4.671795E-01
  4.635005E-01
  4.648822E-01
  4.630722E-01
  4.663796E-01
  4.659509E-01
  4.692593E-01
  4.672858E-01
  4.687287E-01
  4.662754E-01
  4.691458E-01
  4.688849E-01
  4.729955E-01
  4.721425E-01
  4.742942E-01
  4.712272E-01
  4.715089E-01
  4.667484E-01
  4.656213E-01
  4.608343E-01
  4.619806E-01
  4.608003E-01
  4.645792E-01
  4.639702E-01
  4.674375E-01
  4.669944E-01
  4.705572E-01
  4.688355E-01
  4.702395E-01
  4.675362E-01
  4.699182E-01
  4.685659E-01
  4.709320E-01
  4.683220E-01
  4.693233E-01
  4.657648E-01
  4.664395E-01
  4.639988E-01
  4.677498E-01
  4.688016E-01
  4.734792E-01
  4.715633E-01
  4.715433E-01
  4.668295E-01
  4.673416E-01
  4.647443E-01
  4.665682E-01
  4.639918E-01
  4.656578E-01
  4.635499E-01
  4.660734E-01
  4.647003E-01
  4.676814E-01
  4.664638E-01
  4.690700E-01
  4.667283E-01
  4.677656E-01
  4.643873E-01
  4.659544E-01
  4.668332E-01
  4.680656E-01
  4.675777E-01
  4.697514E-01
  4.683160E-01
  4.685090E-01
  4.656974E-01
  4.660234E-01
  4.646094E-01
  4.667938E-01
  4.668260E-01
  4.692846E-01
  4.681888E-01
  4.688921E-01
  4.669081E-01
  4.686608E-01
  4.692675E-01
  4.733480E-01
  4.740935E-01
  4.756558E-01
  4.726392E-01
  4.711975E-01
  4.668903E-01
  4.656622E-01
  4.627926E-01
  4.641184E-01
  4.640727E-01
  4.670010E-01
  4.669733E-01
  4.698060E-01
  4.706926E-01
  4.741087E-01
  4.730712E-01
  4.725501E-01
  4.688459E-01
  4.691592E-01
  4.684410E-01
  4.709369E-01
  4.702248E-01
  4.711318E-01
  4.683336E-01
  4.678678E-01
  4.658159E-01
  4.684876E-01
  4.697714E-01
  4.728531E-01
  4.709753E-01
  4.701574E-01
  4.669540E-01
  4.676999E-01
  4.664516E-01
  4.675586E-01
  4.657331E-01
  4.670891E-01
  4.664835E-01
  4.684099E-01
  4.667375E-01
  4.671100E-01
  4.653487E-01
  4.675152E-01
  4.678156E-01
  4.703670E-01
  4.689886E-01
  4.692332E-01
  4.629138E-01
  4.645981E-01
  4.654792E-01
  4.681095E-01
  4.686857E-01
  4.703263E-01
  4.697494E-01
  4.703089E-01
  4.690874E-01
  4.698381E-01
  4.692920E-01
  4.701274E-01
  4.686416E-01
  4.685608E-01
  4.675923E-01
  4.695537E-01
  4.707967E-01
  4.736173E-01
  4.737800E-01
  4.741295E-01
  4.716330E-01
  4.701244E-01
  4.667554E-01
  4.651830E-01
  4.628472E-01
  4.637775E-01
  4.645675E-01
  4.672969E-01
  4.676140E-01
  4.689134E-01
  4.687029E-01
  4.704017E-01
  4.701674E-01
  4.711370E-01
  4.706898E-01
  4.724372E-01
  4.723166E-01
  4.725411E-01
  4.698078E-01
  4.683871E-01
  4.659544E-01
  4.660821E-01
  4.654140E-01
  4.670648E-01
  4.673811E-01
  4.689973E-01
  4.682246E-01
  4.686473E-01
  4.677190E-01
  4.689621E-01
  4.685220E-01
  4.690175E-01
  4.673375E-01
  4.675891E-01
  4.669988E-01
  4.684485E-01
  4.678886E-01
  4.683160E-01
  4.668607E-01
  4.672534E-01
  4.661300E-01
  4.663034E-01
  4.643476E-01
  4.640468E-01
  4.641574E-01
  4.644581E-01
  4.653534E-01
  4.681858E-01
  4.694888E-01
  4.707587E-01
  4.700290E-01
  4.700918E-01
  4.692898E-01
  4.700277E-01
  4.699831E-01
  4.708408E-01
  4.699329E-01
  4.694463E-01
  4.678704E-01
  4.683016E-01
  4.690420E-01
  4.717869E-01
  4.730300E-01
  4.736657E-01
  4.713289E-01
  4.692411E-01
  4.665764E-01
  4.662635E-01
  4.662092E-01
  4.682646E-01
  4.694886E-01
  4.710362E-01
  4.703223E-01
  4.703072E-01
  4.699175E-01
  4.713145E-01
  4.712154E-01
  4.711610E-01
  4.696813E-01
  4.699656E-01
  4.697894E-01
  4.704069E-01
  4.690676E-01
  4.682613E-01
  4.665248E-01
  4.665793E-01
  4.663967E-01
  4.677773E-01
  4.677469E-01
  4.679196E-01
  4.665035E-01
  4.667978E-01
  4.673080E-01
  4.695561E-01
  4.699322E-01
  4.699777E-01
  4.684934E-01
  4.692092E-01
  4.702554E-01
  4.723798E-01
  4.717157E-01
  4.702795E-01
  4.673981E-01
  4.668542E-01
  4.666854E-01
  4.679081E-01
  4.670792E-01
  4.662024E-01
  4.613455E-01
  4.628280E-01
  4.641730E-01
  4.670709E-01
  4.685254E-01
  4.705884E-01
  4.706993E-01
  4.712649E-01
  4.702886E-01
  4.707085E-01
  4.702177E-01
  4.706512E-01
  4.691597E-01
  4.684724E-01
  4.670882E-01
  4.679889E-01
  4.686677E-01
  4.708658E-01
  4.713678E-01
  4.719057E-01
  4.699807E-01
  4.685117E-01
  4.659449E-01
  4.654190E-01
  4.650544E-01
  4.672822E-01
  4.689385E-01
  4.710044E-01
  4.701121E-01
  4.690243E-01
  4.666952E-01
  4.665368E-01
  4.662491E-01
  4.678923E-01
  4.688297E-01
  4.709656E-01
  4.709137E-01
  4.702347E-01
  4.668859E-01
  4.647542E-01
  4.629372E-01
  4.641473E-01
  4.650632E-01
  4.667820E-01
  4.663004E-01
  4.664136E-01
  4.656884E-01
  4.671893E-01
  4.683433E-01
  4.705407E-01
  4.703249E-01
  4.698928E-01
  4.678358E-01
  4.679100E-01
  4.682803E-01
  4.705924E-01
  4.711290E-01
  4.715307E-01
  4.697080E-01
  4.687855E-01
  4.667078E-01
  4.656993E-01
  4.633172E-01
  4.624217E-01
  4.643428E-01
  4.647999E-01
  4.651508E-01
  4.677784E-01
  4.685124E-01
  4.697654E-01
  4.685472E-01
  4.685387E-01
  4.673074E-01
  4.682923E-01
  4.682525E-01
  4.696282E-01
  4.686535E-01
  4.683086E-01
  4.662091E-01
  4.665058E-01
  4.667889E-01
  4.698476E-01
  4.713498E-01
  4.729172E-01
  4.708700E-01
  4.690579E-01
  4.659416E-01
  4.658525E-01
  4.660550E-01
  4.690933E-01
  4.707129E-01
  4.726962E-01
  4.713916E-01
  4.705759E-01
  4.684681E-01
  4.687403E-01
  4.677951E-01
  4.680899E-01
  4.667243E-01
  4.673614E-01
  4.669048E-01
  4.677457E-01
  4.662894E-01
  4.659020E-01
  4.643208E-01
  4.652851E-01
  4.656735E-01
  4.678041E-01
  4.676789E-01
  4.681566E-01
  4.669047E-01
  4.679962E-01
  4.684585E-01
  4.703301E-01
  4.693394E-01
  4.685700E-01
  4.663312E-01
  4.672229E-01
  4.683149E-01
  4.713156E-01
  4.715695E-01
  4.718087E-01
  4.698979E-01
  4.699794E-01
  4.690784E-01
  4.695413E-01
  4.676417E-01
  4.666335E-01
  4.626315E-01
  4.645849E-01
  4.648946E-01
  4.673612E-01
  4.676660E-01
  4.696391E-01
  4.687533E-01
  4.690997E-01
  4.671405E-01
  4.677856E-01
  4.670066E-01
  4.682297E-01
  4.666950E-01
  4.668277E-01
  4.654096E-01
  4.671390E-01
  4.676603E-01
  4.704770E-01
  4.708598E-01
  4.724515E-01
  4.707508E-01
  4.698890E-01
  4.663105E-01
  4.651815E-01
  4.633829E-01
  4.654437E-01
  4.666134E-01
  4.696335E-01
  4.691362E-01
  4.691192E-01
  4.664164E-01
  4.662895E-01
  4.650644E-01
  4.667096E-01
  4.667363E-01
  4.688096E-01
  4.681292E-01
  4.683266E-01
  4.655151E-01
  4.648282E-01
  4.631218E-01
  4.647198E-01
  4.648376E-01
  4.668159E-01
  4.662769E-01
  4.676891E-01
  4.673006E-01
  4.691985E-01
  4.687543E-01
  4.695433E-01
  4.672997E-01
  4.666710E-01
  4.643934E-01
  4.652505E-01
  4.651809E-01
  4.679002E-01
  4.686780E-01
  4.711181E-01
  4.706930E-01
  4.712604E-01
  4.686214E-01
  4.672886E-01
  4.639785E-01
  4.636982E-01
  4.663700E-01
  4.670989E-01
  4.665504E-01
  4.682284E-01
  4.681360E-01
  4.691422E-01
  4.674896E-01
  4.670922E-01
  4.651695E-01
  4.657746E-01
  4.653531E-01
  4.668547E-01
  4.661634E-01
  4.667277E-01
  4.655689E-01
  4.668423E-01
  4.672547E-01
  4.700385E-01
  4.710556E-01
  4.730374E-01
  4.718333E-01
  4.709366E-01
  4.675785E-01
  4.663569E-01
  4.645382E-01
  4.658035E-01
  4.662083E-01
  4.684711E-01
  4.683832E-01
  4.693909E-01
  4.684650E-01
  4.694240E-01
  4.684086E-01
  4.684812E-01
  4.663423E-01
  4.662697E-01
  4.652335E-01
  4.665776E-01
  4.663109E-01
  4.675908E-01
  4.667686E-01
  4.674719E-01
  4.665056E-01
  4.676433E-01
  4.672588E-01
  4.684907E-01
  4.675979E-01
  4.681867E-01
  4.668477E-01
  4.669849E-01
  4.650442E-01
  4.650076E-01
  4.641329E-01
  4.662383E-01
  4.671994E-01
  4.695132E-01
  4.691288E-01
  4.698237E-01
  4.686384E-01
  4.693202E-01
  4.682061E-01
  4.686710E-01
  4.672702E-01
  4.676494E-01
  4.660671E-01
  4.671844E-01
  4.669042E-01
  4.672389E-01
  4.674622E-01
  4.686274E-01
  4.686618E-01
  4.684410E-01
  4.670369E-01
  4.664677E-01
  4.657004E-01
  4.657298E-01
  4.650771E-01
  4.654893E-01
  4.661965E-01
  4.682412E-01
  4.693917E-01
  4.704073E-01
  4.703746E-01
  4.711629E-01
  4.712403E-01
  4.710074E-01
  4.686419E-01
  4.659733E-01
  4.629415E-01
  4.619683E-01
  4.621035E-01
  4.640231E-01
  4.652168E-01
  4.661066E-01
  4.655396E-01
  4.656786E-01
  4.658348E-01
  4.671767E-01
  4.678402E-01
  4.686112E-01
  4.679593E-01
  4.673761E-01
  4.661546E-01
  4.661701E-01
  4.661354E-01
  4.668159E-01
  4.664646E-01
  4.665297E-01
  4.661872E-01
  4.668635E-01
  4.668173E-01
  4.668342E-01
  4.655694E-01
  4.647916E-01
  4.638438E-01
  4.644622E-01
  4.652598E-01
  4.669019E-01
  4.673830E-01
  4.678519E-01
  4.674257E-01
  4.677346E-01
  4.672248E-01
  4.666979E-01
  4.648932E-01
  4.639492E-01
  4.635064E-01
  4.649484E-01
  4.717271E-01
  4.703658E-01
  4.691036E-01
  4.675633E-01
  4.676626E-01
  4.672777E-01
  4.674712E-01
  4.665852E-01
  4.664443E-01
  4.656047E-01
  4.656755E-01
  4.650512E-01
  4.654563E-01
  4.655544E-01
  4.670842E-01
  4.681395E-01
  4.697238E-01
  4.699802E-01
  4.708362E-01
  4.709977E-01
  4.717162E-01
  4.706965E-01
  4.693325E-01
  4.665637E-01
  4.648052E-01
  4.630989E-01
  4.633469E-01
  4.637541E-01
  4.652520E-01
  4.656684E-01
  4.666901E-01
  4.671344E-01
  4.685149E-01
  4.685699E-01
  4.684725E-01
  4.669606E-01
  4.663958E-01
  4.657653E-01
  4.667681E-01
  4.673572E-01
  4.683990E-01
  4.679271E-01
  4.679595E-01
  4.675770E-01
  4.683610E-01
  4.678906E-01
  4.671343E-01
  4.648823E-01
  4.637737E-01
  4.629133E-01
  4.639338E-01
  4.650277E-01
  4.675672E-01
  4.693600E-01
  4.709597E-01
  4.699916E-01
  4.683149E-01
  4.654263E-01
  4.639667E-01
  4.628357E-01
  4.638164E-01
  4.653395E-01
  4.685147E-01
  4.705230E-01
  4.721962E-01
  4.710247E-01
  4.695383E-01
  4.667853E-01
  4.666316E-01
  4.663366E-01
  4.677355E-01
  4.674392E-01
  4.679530E-01
  4.667346E-01
  4.665252E-01
  4.647329E-01
  4.645604E-01
  4.642481E-01
  4.668618E-01
  4.687991E-01
  4.710977E-01
  4.703492E-01
  4.701091E-01
  4.690510E-01
  4.700652E-01
  4.694144E-01
  4.687379E-01
  4.654416E-01
  4.632822E-01
  4.608428E-01
  4.614659E-01
  4.620882E-01
  4.641169E-01
  4.638088E-01
  4.641006E-01
  4.636500E-01
  4.660072E-01
  4.679083E-01
  4.705627E-01
  4.702385E-01
  4.696345E-01
  4.669710E-01
  4.660292E-01
  4.647588E-01
  4.656959E-01
  4.656363E-01
  4.669526E-01
  4.669874E-01
  4.682627E-01
  4.675276E-01
  4.670124E-01
  4.644443E-01
  4.636114E-01
  4.627539E-01
  4.646481E-01
  4.660568E-01
  4.688088E-01
  4.693192E-01
  4.696569E-01
  4.673454E-01
  4.659980E-01
  4.637749E-01
  4.634435E-01
  4.620914E-01
  4.626842E-01
  4.633359E-01
  4.669278E-01
  4.696139E-01
  4.760519E-01
  4.733110E-01
  4.709378E-01
  4.676543E-01
  4.668310E-01
  4.652940E-01
  4.655521E-01
  4.647527E-01
  4.656870E-01
  4.651771E-01
  4.657031E-01
  4.644258E-01
  4.646374E-01
  4.641131E-01
  4.659663E-01
  4.669130E-01
  4.688993E-01
  4.685532E-01
  4.690225E-01
  4.681204E-01
  4.688735E-01
  4.680448E-01
  4.680826E-01
  4.661905E-01
  4.656296E-01
  4.641175E-01
  4.649025E-01
  4.649928E-01
  4.664981E-01
  4.660617E-01
  4.669853E-01
  4.673158E-01
  4.698573E-01
  4.705311E-01
  4.710269E-01
  4.686399E-01
  4.673975E-01
  4.655594E-01
  4.662031E-01
  4.659260E-01
  4.669164E-01
  4.663408E-01
  4.676811E-01
  4.683593E-01
  4.702738E-01
  4.691055E-01
  4.673450E-01
  4.635802E-01
  4.626033E-01
  4.623273E-01
  4.648804E-01
  4.663535E-01
  4.689986E-01
  4.696066E-01
  4.704795E-01
  4.684682E-01
  4.669331E-01
  4.641250E-01
  4.637313E-01
  4.632315E-01
  4.656228E-01
  4.680686E-01
  4.726556E-01
  4.748743E-01
  4.726608E-01
  4.710251E-01
  4.698840E-01
  4.667983E-01
  4.663718E-01
  4.650136E-01
  4.659050E-01
  4.649683E-01
  4.657996E-01
  4.647727E-01
  4.654022E-01
  4.638438E-01
  4.640480E-01
  4.631285E-01
  4.652156E-01
  4.660176E-01
  4.678743E-01
  4.664313E-01
  4.660671E-01
  4.645031E-01
  4.660434E-01
  4.663410E-01
  4.678228E-01
  4.662153E-01
  4.657014E-01
  4.637924E-01
  4.649939E-01
  4.653454E-01
  4.672706E-01
  4.662205E-01
  4.664521E-01
  4.657902E-01
  4.685107E-01
  4.698770E-01
  4.719100E-01
  4.702738E-01
  4.692364E-01
  4.661916E-01
  4.655447E-01
  4.638839E-01
  4.648490E-01
  4.646884E-01
  4.669264E-01
  4.674822E-01
  4.692178E-01
  4.676939E-01
  4.665911E-01
  4.633024E-01
  4.628588E-01
  4.622236E-01
  4.646626E-01
  4.656243E-01
  4.679719E-01
  4.675294E-01
  4.679262E-01
  4.661330E-01
  4.667628E-01
  4.664967E-01
  4.683330E-01
  4.677241E-01
  4.683750E-01
  4.676025E-01
  4.697897E-01
  4.707235E-01
  4.727574E-01
  4.698855E-01
  4.699718E-01
  4.670452E-01
  4.675311E-01
  4.647535E-01
  4.651484E-01
  4.625659E-01
  4.637005E-01
  4.621494E-01
  4.642134E-01
  4.632576E-01
  4.655136E-01
  4.643973E-01
  4.662714E-01
  4.646274E-01
  4.658166E-01
  4.634803E-01
  4.644605E-01
  4.628975E-01
  4.655234E-01
  4.655903E-01
  4.687655E-01
  4.679464E-01
  4.695343E-01
  4.677076E-01
  4.695389E-01
  4.685340E-01
  4.704789E-01
  4.686754E-01
  4.702381E-01
  4.694549E-01
  4.722516E-01
  4.707131E-01
  4.705310E-01
  4.662174E-01
  4.658788E-01
  4.638908E-01
  4.662090E-01
  4.654287E-01
  4.675005E-01
  4.662926E-01
  4.687967E-01
  4.684648E-01
  4.706773E-01
  4.679452E-01
  4.669101E-01
  4.626318E-01
  4.629994E-01
  4.618161E-01
  4.647448E-01
  4.645928E-01
  4.675653E-01
  4.671900E-01
  4.697407E-01
  4.687228E-01
  4.708558E-01
  4.699968E-01
  4.724234E-01
  4.712690E-01
  4.728940E-01
  4.712712E-01
  4.731160E-01
  4.716585E-01
  4.676469E-01
  4.663927E-01
  4.685847E-01
  4.662797E-01
  4.678494E-01
  4.655915E-01
  4.672301E-01
  4.644995E-01
  4.654564E-01
  4.627164E-01
  4.646604E-01
  4.632785E-01
  4.661848E-01
  4.652014E-01
  4.680233E-01
  4.662112E-01
  4.672464E-01
  4.634036E-01
  4.637092E-01
  4.614821E-01
  4.650533E-01
  4.655486E-01
  4.693526E-01
  4.676371E-01
  4.688413E-01
  4.663260E-01
  4.688308E-01
  4.679217E-01
  4.703416E-01
  4.676433E-01
  4.686107E-01
  4.664968E-01
  4.693291E-01
  4.680747E-01
  4.697696E-01
  4.666621E-01
  4.674423E-01
  4.645491E-01
  4.659134E-01
  4.637208E-01
  4.662455E-01
  4.655876E-01
  4.691586E-01
  4.682055E-01
  4.701245E-01
  4.670215E-01
  4.674210E-01
  4.640972E-01
  4.654111E-01