# vtk DataFile Version 2.0
title
ASCII
DATASET STRUCTURED_GRID
DIMENSIONS   64   64    1
POINTS   4096  float
  0.000000E+00  0.000000E+00  0.000000E+00
  0.000000E+00  3.906250E-01  0.000000E+00
  0.000000E+00  7.812500E-01  0.000000E+00
  0.000000E+00  1.171875E+00  0.000000E+00
  0.000000E+00  1.562500E+00  0.000000E+00
  0.000000E+00  1.953125E+00  0.000000E+00
  0.000000E+00  2.343750E+00  0.000000E+00
  0.000000E+00  2.734375E+00  0.000000E+00
  0.000000E+00  3.125000E+00  0.000000E+00
  0.000000E+00  3.515625E+00  0.000000E+00
  0.000000E+00  3.906250E+00  0.000000E+00
  0.000000E+00  4.296875E+00  0.000000E+00
  0.000000E+00  4.687500E+00  0.000000E+00
  0.000000E+00  5.078125E+00  0.000000E+00
  0.000000E+00  5.468750E+00  0.000000E+00
  0.000000E+00  5.859375E+00  0.000000E+00
  0.000000E+00  6.250000E+00  0.000000E+00
  0.000000E+00  6.640625E+00  0.000000E+00
  0.000000E+00  7.031250E+00  0.000000E+00
  0.000000E+00  7.421875E+00  0.000000E+00
  0.000000E+00  7.812500E+00  0.000000E+00
  0.000000E+00  8.203125E+00  0.000000E+00
  0.000000E+00  8.593750E+00  0.000000E+00
  0.000000E+00  8.984375E+00  0.000000E+00
  0.000000E+00  9.375000E+00  0.000000E+00
  0.000000E+00  9.765625E+00  0.000000E+00
  0.000000E+00  1.015625E+01  0.000000E+00
  0.000000E+00  1.054688E+01  0.000000E+00
  0.000000E+00  1.093750E+01  0.000000E+00
  0.000000E+00  1.132812E+01  0.000000E+00
  0.000000E+00  1.171875E+01  0.000000E+00
  0.000000E+00  1.210938E+01  0.000000E+00
  0.000000E+00  1.250000E+01  0.000000E+00
  0.000000E+00  1.289062E+01  0.000000E+00
  0.000000E+00  1.328125E+01  0.000000E+00
  0.000000E+00  1.367188E+01  0.000000E+00
  0.000000E+00  1.406250E+01  0.000000E+00
  0.000000E+00  1.445312E+01  0.000000E+00
  0.000000E+00  1.484375E+01  0.000000E+00
  0.000000E+00  1.523438E+01  0.000000E+00
  0.000000E+00  1.562500E+01  0.000000E+00
  0.000000E+00  1.601562E+01  0.000000E+00
  0.000000E+00  1.640625E+01  0.000000E+00
  0.000000E+00  1.679688E+01  0.000000E+00
  0.000000E+00  1.718750E+01  0.000000E+00
  0.000000E+00  1.757812E+01  0.000000E+00
  0.000000E+00  1.796875E+01  0.000000E+00
  0.000000E+00  1.835938E+01  0.000000E+00
  0.000000E+00  1.875000E+01  0.000000E+00
  0.000000E+00  1.914062E+01  0.000000E+00
  0.000000E+00  1.953125E+01  0.000000E+00
  0.000000E+00  1.992188E+01  0.000000E+00
  0.000000E+00  2.031250E+01  0.000000E+00
  0.000000E+00  2.070312E+01  0.000000E+00
  0.000000E+00  2.109375E+01  0.000000E+00
  0.000000E+00  2.148438E+01  0.000000E+00
  0.000000E+00  2.187500E+01  0.000000E+00
  0.000000E+00  2.226562E+01  0.000000E+00
  0.000000E+00  2.265625E+01  0.000000E+00
  0.000000E+00  2.304688E+01  0.000000E+00
  0.000000E+00  2.343750E+01  0.000000E+00
  0.000000E+00  2.382812E+01  0.000000E+00
  0.000000E+00  2.421875E+01  0.000000E+00
  0.000000E+00  2.460938E+01  0.000000E+00
  3.906250E-01  0.000000E+00  0.000000E+00
  3.906250E-01  3.906250E-01  0.000000E+00
  3.906250E-01  7.812500E-01  0.000000E+00
  3.906250E-01  1.171875E+00  0.000000E+00
  3.906250E-01  1.562500E+00  0.000000E+00
  3.906250E-01  1.953125E+00  0.000000E+00
  3.906250E-01  2.343750E+00  0.000000E+00
  3.906250E-01  2.734375E+00  0.000000E+00
  3.906250E-01  3.125000E+00  0.000000E+00
  3.906250E-01  3.515625E+00  0.000000E+00
  3.906250E-01  3.906250E+00  0.000000E+00
  3.906250E-01  4.296875E+00  0.000000E+00
  3.906250E-01  4.687500E+00  0.000000E+00
  3.906250E-01  5.078125E+00  0.000000E+00
  3.906250E-01  5.468750E+00  0.000000E+00
  3.906250E-01  5.859375E+00  0.000000E+00
  3.906250E-01  6.250000E+00  0.000000E+00
  3.906250E-01  6.640625E+00  0.000000E+00
  3.906250E-01  7.031250E+00  0.000000E+00
  3.906250E-01  7.421875E+00  0.000000E+00
  3.906250E-01  7.812500E+00  0.000000E+00
  3.906250E-01  8.203125E+00  0.000000E+00
  3.906250E-01  8.593750E+00  0.000000E+00
  3.906250E-01  8.984375E+00  0.000000E+00
  3.906250E-01  9.375000E+00  0.000000E+00
  3.906250E-01  9.765625E+00  0.000000E+00
  3.906250E-01  1.015625E+01  0.000000E+00
  3.906250E-01  1.054688E+01  0.000000E+00
  3.906250E-01  1.093750E+01  0.000000E+00
  3.906250E-01  1.132812E+01  0.000000E+00
  3.906250E-01  1.171875E+01  0.000000E+00
  3.906250E-01  1.210938E+01  0.000000E+00
  3.906250E-01  1.250000E+01  0.000000E+00
  3.906250E-01  1.289062E+01  0.000000E+00
  3.906250E-01  1.328125E+01  0.000000E+00
  3.906250E-01  1.367188E+01  0.000000E+00
  3.906250E-01  1.406250E+01  0.000000E+00
  3.906250E-01  1.445312E+01  0.000000E+00
  3.906250E-01  1.484375E+01  0.000000E+00
  3.906250E-01  1.523438E+01  0.000000E+00
  3.906250E-01  1.562500E+01  0.000000E+00
  3.906250E-01  1.601562E+01  0.000000E+00
  3.906250E-01  1.640625E+01  0.000000E+00
  3.906250E-01  1.679688E+01  0.000000E+00
  3.906250E-01  1.718750E+01  0.000000E+00
  3.906250E-01  1.757812E+01  0.000000E+00
  3.906250E-01  1.796875E+01  0.000000E+00
  3.906250E-01  1.835938E+01  0.000000E+00
  3.906250E-01  1.875000E+01  0.000000E+00
  3.906250E-01  1.914062E+01  0.000000E+00
  3.906250E-01  1.953125E+01  0.000000E+00
  3.906250E-01  1.992188E+01  0.000000E+00
  3.906250E-01  2.031250E+01  0.000000E+00
  3.906250E-01  2.070312E+01  0.000000E+00
  3.906250E-01  2.109375E+01  0.000000E+00
  3.906250E-01  2.148438E+01  0.000000E+00
  3.906250E-01  2.187500E+01  0.000000E+00
  3.906250E-01  2.226562E+01  0.000000E+00
  3.906250E-01  2.265625E+01  0.000000E+00
  3.906250E-01  2.304688E+01  0.000000E+00
  3.906250E-01  2.343750E+01  0.000000E+00
  3.906250E-01  2.382812E+01  0.000000E+00
  3.906250E-01  2.421875E+01  0.000000E+00
  3.906250E-01  2.460938E+01  0.000000E+00
  7.812500E-01  0.000000E+00  0.000000E+00
  7.812500E-01  3.906250E-01  0.000000E+00
  7.812500E-01  7.812500E-01  0.000000E+00
  7.812500E-01  1.171875E+00  0.000000E+00
  7.812500E-01  1.562500E+00  0.000000E+00
  7.812500E-01  1.953125E+00  0.000000E+00
  7.812500E-01  2.343750E+00  0.000000E+00
  7.812500E-01  2.734375E+00  0.000000E+00
  7.812500E-01  3.125000E+00  0.000000E+00
  7.812500E-01  3.515625E+00  0.000000E+00
  7.812500E-01  3.906250E+00  0.000000E+00
  7.812500E-01  4.296875E+00  0.000000E+00
  7.812500E-01  4.687500E+00  0.000000E+00
  7.812500E-01  5.078125E+00  0.000000E+00
  7.812500E-01  5.468750E+00  0.000000E+00
  7.812500E-01  5.859375E+00  0.000000E+00
  7.812500E-01  6.250000E+00  0.000000E+00
  7.812500E-01  6.640625E+00  0.000000E+00
  7.812500E-01  7.031250E+00  0.000000E+00
  7.812500E-01  7.421875E+00  0.000000E+00
  7.812500E-01  7.812500E+00  0.000000E+00
  7.812500E-01  8.203125E+00  0.000000E+00
  7.812500E-01  8.593750E+00  0.000000E+00
  7.812500E-01  8.984375E+00  0.000000E+00
  7.812500E-01  9.375000E+00  0.000000E+00
  7.812500E-01  9.765625E+00  0.000000E+00
  7.812500E-01  1.015625E+01  0.000000E+00
  7.812500E-01  1.054688E+01  0.000000E+00
  7.812500E-01  1.093750E+01  0.000000E+00
  7.812500E-01  1.132812E+01  0.000000E+00
  7.812500E-01  1.171875E+01  0.000000E+00
  7.812500E-01  1.210938E+01  0.000000E+00
  7.812500E-01  1.250000E+01  0.000000E+00
  7.812500E-01  1.289062E+01  0.000000E+00
  7.812500E-01  1.328125E+01  0.000000E+00
  7.812500E-01  1.367188E+01  0.000000E+00
  7.812500E-01  1.406250E+01  0.000000E+00
  7.812500E-01  1.445312E+01  0.000000E+00
  7.812500E-01  1.484375E+01  0.000000E+00
  7.812500E-01  1.523438E+01  0.000000E+00
  7.812500E-01  1.562500E+01  0.000000E+00
  7.812500E-01  1.601562E+01  0.000000E+00
  7.812500E-01  1.640625E+01  0.000000E+00
  7.812500E-01  1.679688E+01  0.000000E+00
  7.812500E-01  1.718750E+01  0.000000E+00
  7.812500E-01  1.757812E+01  0.000000E+00
  7.812500E-01  1.796875E+01  0.000000E+00
  7.812500E-01  1.835938E+01  0.000000E+00
  7.812500E-01  1.875000E+01  0.000000E+00
  7.812500E-01  1.914062E+01  0.000000E+00
  7.812500E-01  1.953125E+01  0.000000E+00
  7.812500E-01  1.992188E+01  0.000000E+00
  7.812500E-01  2.031250E+01  0.000000E+00
  7.812500E-01  2.070312E+01  0.000000E+00
  7.812500E-01  2.109375E+01  0.000000E+00
  7.812500E-01  2.148438E+01  0.000000E+00
  7.812500E-01  2.187500E+01  0.000000E+00
  7.812500E-01  2.226562E+01  0.000000E+00
  7.812500E-01  2.265625E+01  0.000000E+00
  7.812500E-01  2.304688E+01  0.000000E+00
  7.812500E-01  2.343750E+01  0.000000E+00
  7.812500E-01  2.382812E+01  0.000000E+00
  7.812500E-01  2.421875E+01  0.000000E+00
  7.812500E-01  2.460938E+01  0.000000E+00
  1.171875E+00  0.000000E+00  0.000000E+00
  1.171875E+00  3.906250E-01  0.000000E+00
  1.171875E+00  7.812500E-01  0.000000E+00
  1.171875E+00  1.171875E+00  0.000000E+00
  1.171875E+00  1.562500E+00  0.000000E+00
  1.171875E+00  1.953125E+00  0.000000E+00
  1.171875E+00  2.343750E+00  0.000000E+00
  1.171875E+00  2.734375E+00  0.000000E+00
  1.171875E+00  3.125000E+00  0.000000E+00
  1.171875E+00  3.515625E+00  0.000000E+00
  1.171875E+00  3.906250E+00  0.000000E+00
  1.171875E+00  4.296875E+00  0.000000E+00
  1.171875E+00  4.687500E+00  0.000000E+00
  1.171875E+00  5.078125E+00  0.000000E+00
  1.171875E+00  5.468750E+00  0.000000E+00
  1.171875E+00  5.859375E+00  0.000000E+00
  1.171875E+00  6.250000E+00  0.000000E+00
  1.171875E+00  6.640625E+00  0.000000E+00
  1.171875E+00  7.031250E+00  0.000000E+00
  1.171875E+00  7.421875E+00  0.000000E+00
  1.171875E+00  7.812500E+00  0.000000E+00
  1.171875E+00  8.203125E+00  0.000000E+00
  1.171875E+00  8.593750E+00  0.000000E+00
  1.171875E+00  8.984375E+00  0.000000E+00
  1.171875E+00  9.375000E+00  0.000000E+00
  1.171875E+00  9.765625E+00  0.000000E+00
  1.171875E+00  1.015625E+01  0.000000E+00
  1.171875E+00  1.054688E+01  0.000000E+00
  1.171875E+00  1.093750E+01  0.000000E+00
  1.171875E+00  1.132812E+01  0.000000E+00
  1.171875E+00  1.171875E+01  0.000000E+00
  1.171875E+00  1.210938E+01  0.000000E+00
  1.171875E+00  1.250000E+01  0.000000E+00
  1.171875E+00  1.289062E+01  0.000000E+00
  1.171875E+00  1.328125E+01  0.000000E+00
  1.171875E+00  1.367188E+01  0.000000E+00
  1.171875E+00  1.406250E+01  0.000000E+00
  1.171875E+00  1.445312E+01  0.000000E+00
[...]
POINT_DATA   4096
SCALARS CON  float  1
LOOKUP_TABLE default
  4.640078E-01
  4.605985E-01
  4.645884E-01
  4.658954E-01
  4.679776E-01
  4.593674E-01
  4.563271E-01
  4.561739E-01
  4.659567E-01
  4.668043E-01
  4.651071E-01
  4.585324E-01
  4.608914E-01
  4.595627E-01
  4.617680E-01
  4.579658E-01
  4.597158E-01
  4.604869E-01
  4.664404E-01
  4.634002E-01
  4.626619E-01
  4.579407E-01
  4.591015E-01
  4.554312E-01
  4.570352E-01
  4.557380E-01
  4.582394E-01
  4.547130E-01
  4.596606E-01
  4.635739E-01
  4.691411E-01
  4.625945E-01
  4.573883E-01
  4.533444E-01
  4.626045E-01
  4.656887E-01
  4.646931E-01
  4.572541E-01
  4.589493E-01
  4.553255E-01
  4.556399E-01
  4.562713E-01
  4.612233E-01
  4.549739E-01
  4.561988E-01
  4.592174E-01
  4.617310E-01
  4.530145E-01
  4.574336E-01
  4.662343E-01
  4.701933E-01
  4.577758E-01
  4.562141E-01
  4.574744E-01
  4.613728E-01
  4.616717E-01
  4.712371E-01
  4.733570E-01
  4.730383E-01
  4.661262E-01
  4.677771E-01
  4.658243E-01
  4.667905E-01
  4.628595E-01
  4.631871E-01
  4.610497E-01
  4.678827E-01
  4.736228E-01
  4.760153E-01
  4.654668E-01
  4.573435E-01
  4.554172E-01
  4.645907E-01
  4.654003E-01
  4.612858E-01
  4.558819E-01
  4.609999E-01
  4.634820E-01
  4.642648E-01
  4.587698E-01
  4.591492E-01
  4.614352E-01
  4.693596E-01
  4.704132E-01
  4.685223E-01
  4.591485E-01
  4.543768E-01
  4.517437E-01
  4.572917E-01
  4.598913E-01
  4.623614E-01
  4.588948E-01
  4.609859E-01
  4.634902E-01
  4.675682E-01
  4.619121E-01
  4.578988E-01
  4.563659E-01
  4.625062E-01
  4.617296E-01
  4.602225E-01
  4.572757E-01
  4.593423E-01
  4.563603E-01
  4.569969E-01
  4.556002E-01
  4.556134E-01
  4.504066E-01
  4.512449E-01
  4.533358E-01
  4.579524E-01
  4.559893E-01
  4.634564E-01
  4.739992E-01
  4.764676E-01
  4.620808E-01
  4.564359E-01
  4.570205E-01
  4.620353E-01
  4.644995E-01
  4.712081E-01
  4.707846E-01
  4.689585E-01
  4.619351E-01
  4.604637E-01
  4.602217E-01
  4.652487E-01
  4.639827E-01
  4.559537E-01
  4.595921E-01
  4.696053E-01
  4.758323E-01
  4.729560E-01
  4.620021E-01
  4.583204E-01
  4.594899E-01
  4.635165E-01
  4.622142E-01
  4.610629E-01
  4.607056E-01
  4.637706E-01
  4.642460E-01
  4.650741E-01
  4.617063E-01
  4.613302E-01
  4.632029E-01
  4.673843E-01
  4.670957E-01
  4.663917E-01
  4.616615E-01
  4.578567E-01
  4.547287E-01
  4.574269E-01
  4.588467E-01
  4.587542E-01
  4.554431E-01
  4.577999E-01
  4.604085E-01
  4.607047E-01
  4.556072E-01
  4.546202E-01
  4.569855E-01
  4.632469E-01
  4.637112E-01
  4.621335E-01
  4.599624E-01
  4.609076E-01
  4.580641E-01
  4.573135E-01
  4.565760E-01
  4.554530E-01
  4.495552E-01
  4.479431E-01
  4.508640E-01
  4.588766E-01
  4.633498E-01
  4.706200E-01
  4.764085E-01
  4.737304E-01
  4.609029E-01
  4.569307E-01
  4.591587E-01
  4.629576E-01
  4.645352E-01
  4.693769E-01
  4.715559E-01
  4.705753E-01
  4.609089E-01
  4.537333E-01
  4.525974E-01
  4.561449E-01
  4.548994E-01
  4.544129E-01
  4.589721E-01
  4.699697E-01
  4.761716E-01
  4.675474E-01
  4.552909E-01
  4.532122E-01
  4.568596E-01
  4.599500E-01
  4.611754E-01
  4.620912E-01
  4.644625E-01
  4.675550E-01
  4.673443E-01
  4.631928E-01
  4.592353E-01
  4.601278E-01
  4.633931E-01
  4.646608E-01
  4.633129E-01
  4.622581E-01
  4.621070E-01
  4.620970E-01
  4.630001E-01
  4.649675E-01
  4.636320E-01
  4.596387E-01
  4.567787E-01
  4.558076E-01
  4.562098E-01
  4.583913E-01
  4.598867E-01
  4.606367E-01
  4.618576E-01
  4.615826E-01
  4.588308E-01
  4.582943E-01
  4.593165E-01
  4.591780E-01
  4.614397E-01
  4.655261E-01
  4.618429E-01
  4.545205E-01
  4.541467E-01
  4.567738E-01
  4.571883E-01
  4.594098E-01
  4.619477E-01
  4.643521E-01
  4.674414E-01
  4.655995E-01
  4.580150E-01
  4.549426E-01
  4.603112E-01
  4.683390E-01
  4.722521E-01
  4.725846E-01
  4.724535E-01
  4.699224E-01
  4.613572E-01
  4.540933E-01
  4.550441E-01
  4.579200E-01
  4.559703E-01
  4.521696E-01
  4.621058E-01
  4.675097E-01
  4.729734E-01
  4.618995E-01
  4.552821E-01
  4.542997E-01
  4.598479E-01
  4.570226E-01
  4.606582E-01
  4.620765E-01
  4.673306E-01
  4.643532E-01
  4.645352E-01
  4.608279E-01
  4.631275E-01
  4.621404E-01
  4.666266E-01
  4.634472E-01
  4.624790E-01
  4.589777E-01
  4.645992E-01
  4.645970E-01
  4.656437E-01
  4.613778E-01
  4.627658E-01
  4.585244E-01
  4.587347E-01
  4.541188E-01
  4.548504E-01
  4.544186E-01
  4.614906E-01
  4.601395E-01
  4.605171E-01
  4.585802E-01
  4.635029E-01
  4.606957E-01
  4.588415E-01
  4.537692E-01
  4.599198E-01
  4.621067E-01
  4.614328E-01
  4.535231E-01
  4.577441E-01
  4.603853E-01
  4.647498E-01
  4.617721E-01
  4.605703E-01
  4.545507E-01
  4.590334E-01
  4.596250E-01
  4.596546E-01
  4.543337E-01
  4.595390E-01
  4.623191E-01
  4.662370E-01
  4.640768E-01
  4.695456E-01
  4.668251E-01
  4.619955E-01
  4.538396E-01
  4.553336E-01
  4.502387E-01
  4.503075E-01
  4.588816E-01
  4.669395E-01
  4.642130E-01
  4.697880E-01
  4.611746E-01
  4.586936E-01
  4.511972E-01
  4.538334E-01
  4.500516E-01
  4.585221E-01
  4.576828E-01
  4.633261E-01
  4.608397E-01
  4.660549E-01
  4.598292E-01
  4.621273E-01
  4.578828E-01
  4.646308E-01
  4.638861E-01
  4.688939E-01
  4.621410E-01
  4.656218E-01
  4.605991E-01
  4.610448E-01
  4.536653E-01
  4.589156E-01
  4.577864E-01
  4.641037E-01
  4.566256E-01
  4.563559E-01
  4.565769E-01
  4.708489E-01
  4.667418E-01
  4.620586E-01
  4.526867E-01
  4.593393E-01
  4.576381E-01
  4.600711E-01
  4.542507E-01
  4.638876E-01
  4.639824E-01
  4.603766E-01
  4.476487E-01
  4.589873E-01
  4.672074E-01
  4.754197E-01
  4.671039E-01
  4.619403E-01
  4.494915E-01
  4.569423E-01
  4.603496E-01
  4.637120E-01
  4.534516E-01
  4.578880E-01
  4.580594E-01
  4.628559E-01
  4.573414E-01
  4.630275E-01
  4.583543E-01
  4.608754E-01
  4.579888E-01
  4.630956E-01
  4.550639E-01
  4.582186E-01
  4.620134E-01
  4.656656E-01
  4.613742E-01
  4.623681E-01
  4.583259E-01
  4.569657E-01
  4.541051E-01
  4.544606E-01
  4.510118E-01
  4.556942E-01
  4.582698E-01
  4.622371E-01
  4.598772E-01
  4.600349E-01
  4.571939E-01
  4.591929E-01
  4.573754E-01
  4.616056E-01
  4.643757E-01
  4.679845E-01
  4.636387E-01
  4.644623E-01
  4.611186E-01
  4.548713E-01
  4.443301E-01
  4.468572E-01
  4.520512E-01
  4.603768E-01
  4.593205E-01
  4.567420E-01
  4.562669E-01
  4.681090E-01
  4.677179E-01
  4.590474E-01
  4.522625E-01
  4.607715E-01
  4.644531E-01
  4.646739E-01
  4.603257E-01
  4.631717E-01
  4.607495E-01
  4.566973E-01
  4.498727E-01
  4.562422E-01
  4.643928E-01
  4.730748E-01
  4.712128E-01
  4.652804E-01
  4.541439E-01
  4.567928E-01
  4.606677E-01
  4.616443E-01
  4.559392E-01
  4.580534E-01
  4.561015E-01
  4.546668E-01
  4.525518E-01
  4.584023E-01
  4.582435E-01
  4.623556E-01
  4.652034E-01
  4.662261E-01
  4.578155E-01
  4.586060E-01
  4.628168E-01
  4.587299E-01
  4.589266E-01
  4.604780E-01
  4.611261E-01
  4.598038E-01
  4.610821E-01
  4.595506E-01
  4.574808E-01
  4.570732E-01
  4.600632E-01
  4.615964E-01
  4.628438E-01
  4.594753E-01
  4.566174E-01
  4.576677E-01
  4.626212E-01
  4.661113E-01
  4.708802E-01
  4.710148E-01
  4.665058E-01
  4.625527E-01
  4.637741E-01
  4.594437E-01
  4.521692E-01
  4.489240E-01
  4.541077E-01
  4.614153E-01
  4.647481E-01
  4.593882E-01
  4.606455E-01
  4.701100E-01
  4.736543E-01
  4.635912E-01
  4.561702E-01
  4.581408E-01
  4.659012E-01
  4.673440E-01
  4.645818E-01
  4.637920E-01
  4.665662E-01
  4.616508E-01
  4.553884E-01
  4.569732E-01
  4.648398E-01
  4.679606E-01
  4.693626E-01
  4.657008E-01
  4.598154E-01
  4.583259E-01
  4.616709E-01
  4.594199E-01
  4.577090E-01
  4.593258E-01
  4.618502E-01
  4.595692E-01
  4.581628E-01
  4.561152E-01
  4.558423E-01
  4.608150E-01
  4.690427E-01
  4.687925E-01
  4.664725E-01
  4.647571E-01
  4.534757E-01
  4.530495E-01
  4.560890E-01
  4.627430E-01
  4.627484E-01
  4.656406E-01
  4.688824E-01
  4.704511E-01
  4.633129E-01
  4.612003E-01
  4.625808E-01
  4.665178E-01
  4.627023E-01
  4.592227E-01
  4.587718E-01
  4.667950E-01
  4.706724E-01
  4.732710E-01
  4.724086E-01
  4.717445E-01
  4.640432E-01
  4.614694E-01
  4.630806E-01
  4.644584E-01
  4.576272E-01
  4.559846E-01
  4.562157E-01
  4.618066E-01
  4.640136E-01
  4.624864E-01
  4.592142E-01
  4.662352E-01
  4.688034E-01
  4.661303E-01
  4.618262E-01
  4.667066E-01
  4.696136E-01
  4.685467E-01
  4.614430E-01
  4.605776E-01
  4.611608E-01
  4.636233E-01
  4.602444E-01
  4.588563E-01
  4.575702E-01
  4.607333E-01
  4.626290E-01
  4.654815E-01
  4.618743E-01
  4.622854E-01
  4.623965E-01
  4.623628E-01
  4.588581E-01
  4.600233E-01
  4.601338E-01
  4.634278E-01
  4.631170E-01
  4.617133E-01
  4.565238E-01
  4.586967E-01
  4.592866E-01
  4.579655E-01
  4.553969E-01
  4.573166E-01
  4.539999E-01
  4.528701E-01
  4.576423E-01
  4.670809E-01
  4.653178E-01
  4.643351E-01
  4.621630E-01
  4.646056E-01
  4.625735E-01
  4.646062E-01
  4.639488E-01
  4.663983E-01
  4.635588E-01
  4.634426E-01
  4.613312E-01
  4.651003E-01
  4.632656E-01
  4.639238E-01
  4.650869E-01
  4.698169E-01
  4.625776E-01
  4.571837E-01
  4.561444E-01
  4.622053E-01
  4.620779E-01
  4.644534E-01
  4.627456E-01
  4.650015E-01
  4.628163E-01
  4.619284E-01
  4.599200E-01
  4.661970E-01
  4.675894E-01
  4.679745E-01
  4.625371E-01
  4.640038E-01
  4.648697E-01
  4.651051E-01
  4.580053E-01
  4.590835E-01
  4.597091E-01
  4.616289E-01
  4.591480E-01
  4.616491E-01
  4.590713E-01
  4.575898E-01
  4.539259E-01
  4.566841E-01
  4.566099E-01
  4.627456E-01
  4.658735E-01
  4.670260E-01
  4.597384E-01
  4.587128E-01
  4.615008E-01
  4.713198E-01
  4.713346E-01
  4.663759E-01
  4.567040E-01
  4.562844E-01
  4.540441E-01
  4.548226E-01
  4.559784E-01
  4.603712E-01
  4.543918E-01
  4.536261E-01
  4.587895E-01
  4.637637E-01
  4.620974E-01
  4.581965E-01
  4.597491E-01
  4.627903E-01
  4.638383E-01
  4.632583E-01
  4.641671E-01
  4.645075E-01
  4.626719E-01
  4.599827E-01
  4.603905E-01
  4.598757E-01
  4.562123E-01
  4.539396E-01
  4.587087E-01
  4.636960E-01
  4.619979E-01
  4.569912E-01
  4.562709E-01
  4.565860E-01
  4.575434E-01
  4.608771E-01
  4.641230E-01
  4.637441E-01
  4.627584E-01
  4.598424E-01
  4.562907E-01
  4.554277E-01
  4.578566E-01
  4.589688E-01
  4.601120E-01
  4.635850E-01
  4.666947E-01
  4.632214E-01
  4.583715E-01
  4.549634E-01
  4.517992E-01
  4.531800E-01
  4.611170E-01
  4.642044E-01
  4.607763E-01
  4.558542E-01
  4.528532E-01
  4.528270E-01
  4.573634E-01
  4.633053E-01
  4.671363E-01
  4.654913E-01
  4.617391E-01
  4.589212E-01
  4.609995E-01
  4.664084E-01
  4.697233E-01
  4.668374E-01
  4.618842E-01
  4.589692E-01
  4.593013E-01
  4.584724E-01
  4.571957E-01
  4.560342E-01
  4.572580E-01
  4.550096E-01
  4.564607E-01
  4.600218E-01
  4.606532E-01
  4.599888E-01
  4.619040E-01
  4.625300E-01
  4.614843E-01
  4.601252E-01
  4.596685E-01
  4.606247E-01
  4.628251E-01
  4.618153E-01
  4.585558E-01
  4.565523E-01
  4.565807E-01
  4.585611E-01
  4.648199E-01
  4.692332E-01
  4.667109E-01
  4.612709E-01
  4.588589E-01
  4.576717E-01
  4.577126E-01
  4.609020E-01
  4.669534E-01
  4.697626E-01
  4.674639E-01
  4.626281E-01
  4.592008E-01
  4.578796E-01
  4.585811E-01
  4.580095E-01
  4.561992E-01
  4.567052E-01
  4.608942E-01
  4.624099E-01
  4.610430E-01
  4.588852E-01
  4.545086E-01
  4.517375E-01
  4.581592E-01
  4.660274E-01
  4.672479E-01
  4.633573E-01
  4.593506E-01
  4.585536E-01
  4.631605E-01
  4.675030E-01
  4.662232E-01
  4.606982E-01
  4.579056E-01
  4.588531E-01
  4.621149E-01
  4.654109E-01
  4.669588E-01
  4.645796E-01
  4.609476E-01
  4.608352E-01
  4.662358E-01
  4.689528E-01
  4.650221E-01
  4.598769E-01
  4.560006E-01
  4.588922E-01
  4.556830E-01
  4.586125E-01
  4.590406E-01
  4.638753E-01
  4.663801E-01
  4.653565E-01
  4.571852E-01
  4.577704E-01
  4.596762E-01
  4.639221E-01
  4.615815E-01
  4.593399E-01
  4.560913E-01
  4.611463E-01
  4.642255E-01
  4.690499E-01
  4.697028E-01
  4.710719E-01
  4.661743E-01
  4.644246E-01
  4.603574E-01
  4.578149E-01
  4.519530E-01
  4.555675E-01
  4.617895E-01
  4.681719E-01
  4.657731E-01
  4.640578E-01
  4.585639E-01
  4.590770E-01
  4.587624E-01
  4.600900E-01
  4.582975E-01
  4.617573E-01
  4.613592E-01
  4.620494E-01
  4.598500E-01
  4.598988E-01
  4.532760E-01
  4.532019E-01
  4.566312E-01
  4.609298E-01
  4.589835E-01
  4.632644E-01
  4.641393E-01
  4.659910E-01
  4.661508E-01
  4.681658E-01
  4.611754E-01
  4.565063E-01
  4.541208E-01
  4.571880E-01
  4.550022E-01
  4.569698E-01
  4.593617E-01
  4.649568E-01
  4.633879E-01
  4.638289E-01
  4.642732E-01
  4.652578E-01
  4.559438E-01
  4.536114E-01
  4.608045E-01
  4.629283E-01
  4.597869E-01
  4.636833E-01
  4.632238E-01
  4.644083E-01
  4.608536E-01
  4.572588E-01
  4.521595E-01
  4.576329E-01
  4.599777E-01
  4.625584E-01
  4.607718E-01
  4.600787E-01
  4.550148E-01
  4.588410E-01
  4.623216E-01
  4.666915E-01
  4.657292E-01
  4.678508E-01
  4.642849E-01
  4.627730E-01
  4.585844E-01
  4.586622E-01
  4.545470E-01
  4.558211E-01
  4.578839E-01
  4.632785E-01
  4.613415E-01
  4.616313E-01
  4.598886E-01
  4.645916E-01
  4.658843E-01
  4.661942E-01
  4.601100E-01
  4.594013E-01
  4.578113E-01
  4.596840E-01
  4.578393E-01
  4.620677E-01
  4.619990E-01
  4.616042E-01
  4.577484E-01
  4.580580E-01
  4.553285E-01
  4.602165E-01
  4.618421E-01
  4.623383E-01
  4.593452E-01
  4.613443E-01
  4.569251E-01
  4.556192E-01
  4.545143E-01
  4.580795E-01
  4.566336E-01
  4.591306E-01
  4.595891E-01
  4.635943E-01
  4.631924E-01
  4.653098E-01
  4.629939E-01
  4.621868E-01
  4.560727E-01
  4.580598E-01
  4.596169E-01
  4.614307E-01
  4.595677E-01
  4.614927E-01
  4.616985E-01
  4.618320E-01
  4.612531E-01
  4.598710E-01
  4.571513E-01
  4.584495E-01
  4.587620E-01
  4.590177E-01
  4.577203E-01
  4.569809E-01
  4.562801E-01
  4.591301E-01
  4.605355E-01
  4.598951E-01
  4.572317E-01
  4.593107E-01
  4.623994E-01
  4.640665E-01
  4.617249E-01
  4.600545E-01
  4.573115E-01
  4.552880E-01
  4.521294E-01
  4.530182E-01
  4.571626E-01
  4.607707E-01
  4.583367E-01
  4.594621E-01
  4.623112E-01
  4.618709E-01
  4.586753E-01
  4.607757E-01
  4.618779E-01
  4.598420E-01
  4.567625E-01
  4.593330E-01
  4.618936E-01
  4.644174E-01
  4.640599E-01
  4.595229E-01
  4.534290E-01
  4.568537E-01
  4.608435E-01
  4.590984E-01
  4.554202E-01
  4.556393E-01
  4.535696E-01
  4.544792E-01
  4.590810E-01
  4.635744E-01
  4.620230E-01
  4.606682E-01
  4.597809E-01
  4.616290E-01
  4.634961E-01
  4.641098E-01
  4.594007E-01
  4.549520E-01
  4.515051E-01
  4.545078E-01
  4.654776E-01
  4.609114E-01
  4.581418E-01
  4.567940E-01
  4.597507E-01
  4.602988E-01
  4.620930E-01
  4.618033E-01
  4.635312E-01
  4.596381E-01
  4.558245E-01
  4.540726E-01
  4.585981E-01
  4.595033E-01
  4.605466E-01
  4.610525E-01
  4.635102E-01
  4.593084E-01
  4.576083E-01
  4.607387E-01
  4.682968E-01
  4.676345E-01
  4.638769E-01
  4.603090E-01
  4.627864E-01
  4.591979E-01
  4.530404E-01
  4.509159E-01
  4.590411E-01
  4.617276E-01
  4.599674E-01
  4.582669E-01
  4.625262E-01
  4.604634E-01
  4.565704E-01
  4.552911E-01
  4.606775E-01
  4.592567E-01
  4.568784E-01
  4.590034E-01
  4.656369E-01
  4.637481E-01
  4.623638E-01
  4.604492E-01
  4.605777E-01
  4.609788E-01
  4.628976E-01
  4.571953E-01
  4.548888E-01
  4.549520E-01
  4.558039E-01
  4.545663E-01
  4.602978E-01
  4.655865E-01
  4.699043E-01
  4.676778E-01
  4.635672E-01
  4.564939E-01
  4.557315E-01
  4.551631E-01
  4.549778E-01
  4.544295E-01
  4.600826E-01
  4.635422E-01
  4.702271E-01
  4.655926E-01
  4.613272E-01
  4.558021E-01
  4.579532E-01
  4.586547E-01
  4.628629E-01
  4.635147E-01
  4.653840E-01
  4.593659E-01
  4.578865E-01
  4.576685E-01
  4.591096E-01
  4.553123E-01
  4.608332E-01
  4.674501E-01
  4.730397E-01
  4.663465E-01
  4.614836E-01
  4.609084E-01
  4.687905E-01
  4.683363E-01
  4.633043E-01
  4.545191E-01
  4.562021E-01
  4.554597E-01
  4.528654E-01
  4.508638E-01
  4.603298E-01
  4.601154E-01
  4.533780E-01
  4.485823E-01
  4.569109E-01
  4.604856E-01
  4.631505E-01
  4.637451E-01
  4.668846E-01
  4.599946E-01
  4.561552E-01
  4.556700E-01
  4.595114E-01
  4.568840E-01
  4.586747E-01
  4.572961E-01
  4.599856E-01
  4.620927E-01
  4.638687E-01
  4.558592E-01
  4.546677E-01
  4.562990E-01
  4.599633E-01
  4.576011E-01
  4.612670E-01
  4.634650E-01
  4.664698E-01
  4.620604E-01
  4.591744E-01
  4.536750E-01
  4.537614E-01
  4.507256E-01
  4.510556E-01
  4.524466E-01
  4.618226E-01
  4.664384E-01
  4.745561E-01
  4.686431E-01
  4.637593E-01
  4.604687E-01
  4.610363E-01
  4.590975E-01
  4.554693E-01
  4.542859E-01
  4.588430E-01
  4.597767E-01
  4.593682E-01
  4.595300E-01
  4.586845E-01
  4.546122E-01
  4.562480E-01
  4.630447E-01
  4.694760E-01
  4.668749E-01
  4.622260E-01
  4.608031E-01
  4.634592E-01
  4.627801E-01
  4.581517E-01
  4.525731E-01
  4.544928E-01
  4.569233E-01
  4.567491E-01
  4.582105E-01
  4.639355E-01
  4.615360E-01
  4.543404E-01
  4.531064E-01
  4.619415E-01
  4.683832E-01
  4.685410E-01
  4.647337E-01
  4.629756E-01
  4.589773E-01
  4.565953E-01
  4.585720E-01
  4.609437E-01
  4.562087E-01
  4.549497E-01
  4.595808E-01
  4.662674E-01
  4.674048E-01
  4.621339E-01
  4.524774E-01
  4.506883E-01
  4.567771E-01
  4.637633E-01
  4.630211E-01
  4.608918E-01
  4.616878E-01
  4.647610E-01
  4.615874E-01
  4.566988E-01
  4.541186E-01
  4.555961E-01
  4.551040E-01
  4.547759E-01
  4.585905E-01
  4.693311E-01
  4.754879E-01
  4.676033E-01
  4.657394E-01
  4.607868E-01
  4.594195E-01
  4.597684E-01
  4.598790E-01
  4.551812E-01
  4.542165E-01
  4.567637E-01
  4.605338E-01
  4.607114E-01
  4.608576E-01
  4.556510E-01
  4.514977E-01
  4.518363E-01
  4.573390E-01
  4.602566E-01
  4.614380E-01
  4.583020E-01
  4.561153E-01
  4.554696E-01
  4.595479E-01
  4.599070E-01
  4.574581E-01
  4.552847E-01
  4.570434E-01
  4.558406E-01
  4.579696E-01
  4.626705E-01
  4.638649E-01
  4.574936E-01
  4.575137E-01
  4.625451E-01
  4.678016E-01
  4.677466E-01
  4.655951E-01
  4.599261E-01
  4.574892E-01
  4.573842E-01
  4.595413E-01
  4.576123E-01
  4.567829E-01
  4.580264E-01
  4.627937E-01
  4.659762E-01
  4.674057E-01
  4.611308E-01
  4.545400E-01
  4.516065E-01
  4.561684E-01
  4.609302E-01
  4.627220E-01
  4.598194E-01
  4.610644E-01
  4.609348E-01
  4.567820E-01
  4.526775E-01
  4.583436E-01
  4.638515E-01
  4.644703E-01
  4.597522E-01
  4.591600E-01
  4.622482E-01
  4.673965E-01
  4.653122E-01
  4.622853E-01
  4.610940E-01
  4.589136E-01
  4.615108E-01
  4.604260E-01
  4.576636E-01
  4.538592E-01
  4.569163E-01
  4.574423E-01
  4.576655E-01
  4.558761E-01
  4.572673E-01
  4.556256E-01
  4.552296E-01
  4.524018E-01
  4.531510E-01
  4.541125E-01
  4.579226E-01
  4.555720E-01
  4.544952E-01
  4.571207E-01
  4.645966E-01
  4.657970E-01
  4.665189E-01
  4.629280E-01
  4.603668E-01
  4.588388E-01
  4.627769E-01
  4.624630E-01
  4.633897E-01
  4.645033E-01
  4.682911E-01
  4.669293E-01
  4.639394E-01
  4.556969E-01
  4.533857E-01
  4.554233E-01
  4.602973E-01
  4.611311E-01
  4.634868E-01
  4.601933E-01
  4.592047E-01
  4.615469E-01
  4.668260E-01
  4.630532E-01
  4.581999E-01
  4.540691E-01
  4.541548E-01
  4.528193E-01
  4.565405E-01
  4.569976E-01
  4.570459E-01
  4.585317E-01
  4.643573E-01
  4.616074E-01
  4.598715E-01
  4.617071E-01
  4.671903E-01
  4.674229E-01
  4.671130E-01
  4.631428E-01
  4.638499E-01
  4.642449E-01
  4.601718E-01
  4.592052E-01
  4.631622E-01
  4.576303E-01
  4.596699E-01
  4.574412E-01
  4.635113E-01
  4.591301E-01
  4.575433E-01
  4.495627E-01
  4.543190E-01
  4.552629E-01
  4.610920E-01
  4.584860E-01
  4.645718E-01
  4.602695E-01
  4.584178E-01
  4.523655E-01
  4.571351E-01
  4.515087E-01
  4.529001E-01
  4.554597E-01
  4.678284E-01
  4.656803E-01
  4.658421E-01
  4.592390E-01
  4.611892E-01
  4.591138E-01
  4.657210E-01
  4.607680E-01
  4.602341E-01
  4.567032E-01
  4.632422E-01
  4.607312E-01
  4.627934E-01
  4.560995E-01
  4.587896E-01
  4.578125E-01
  4.615972E-01
  4.551895E-01
  4.589179E-01
  4.579812E-01
  4.620290E-01
  4.577244E-01
  4.606462E-01
  4.542078E-01
  4.557185E-01
  4.548289E-01
  4.595295E-01