# vtk DataFile Version 2.0
title
ASCII
DATASET STRUCTURED_GRID
DIMENSIONS   64   64    1
POINTS   4096  float
  0.000000E+00  0.000000E+00  0.000000E+00
  0.000000E+00  3.906250E-01  0.000000E+00
  0.000000E+00  7.812500E-01  0.000000E+00
  0.000000E+00  1.171875E+00  0.000000E+00
  0.000000E+00  1.562500E+00  0.000000E+00
  0.000000E+00  1.953125E+00  0.000000E+00
  0.000000E+00  2.343750E+00  0.000000E+00
  0.000000E+00  2.734375E+00  0.000000E+00
  0.000000E+00  3.125000E+00  0.000000E+00
  0.000000E+00  3.515625E+00  0.000000E+00
  0.000000E+00  3.906250E+00  0.000000E+00
  0.000000E+00  4.296875E+00  0.000000E+00
  0.000000E+00  4.687500E+00  0.000000E+00
  0.000000E+00  5.078125E+00  0.000000E+00
  0.000000E+00  5.468750E+00  0.000000E+00
  0.000000E+00  5.859375E+00  0.000000E+00
  0.000000E+00  6.250000E+00  0.000000E+00
  0.000000E+00  6.640625E+00  0.000000E+00
  0.000000E+00  7.031250E+00  0.000000E+00
  0.000000E+00  7.421875E+00  0.000000E+00
  0.000000E+00  7.812500E+00  0.000000E+00
  0.000000E+00  8.203125E+00  0.000000E+00
  0.000000E+00  8.593750E+00  0.000000E+00
  0.000000E+00  8.984375E+00  0.000000E+00
  0.000000E+00  9.375000E+00  0.000000E+00
  0.000000E+00  9.765625E+00  0.000000E+00
  0.000000E+00  1.015625E+01  0.000000E+00
  0.000000E+00  1.054688E+01  0.000000E+00
  0.000000E+00  1.093750E+01  0.000000E+00
  0.000000E+00  1.132812E+01  0.000000E+00
  0.000000E+00  1.171875E+01  0.000000E+00
  0.000000E+00  1.210938E+01  0.000000E+00
  0.000000E+00  1.250000E+01  0.000000E+00
  0.000000E+00  1.289062E+01  0.000000E+00
  0.000000E+00  1.328125E+01  0.000000E+00
  0.000000E+00  1.367188E+01  0.000000E+00
  0.000000E+00  1.406250E+01  0.000000E+00
  0.000000E+00  1.445312E+01  0.000000E+00
  0.000000E+00  1.484375E+01  0.000000E+00
  0.000000E+00  1.523438E+01  0.000000E+00
  0.000000E+00  1.562500E+01  0.000000E+00
  0.000000E+00  1.601562E+01  0.000000E+00
  0.000000E+00  1.640625E+01  0.000000E+00
  0.000000E+00  1.679688E+01  0.000000E+00
  0.000000E+00  1.718750E+01  0.000000E+00
  0.000000E+00  1.757812E+01  0.000000E+00
  0.000000E+00  1.796875E+01  0.000000E+00
  0.000000E+00  1.835938E+01  0.000000E+00
  0.000000E+00  1.875000E+01  0.000000E+00
  0.000000E+00  1.914062E+01  0.000000E+00
  0.000000E+00  1.953125E+01  0.000000E+00
  0.000000E+00  1.992188E+01  0.000000E+00
  0.000000E+00  2.031250E+01  0.000000E+00
  0.000000E+00  2.070312E+01  0.000000E+00
  0.000000E+00  2.109375E+01  0.000000E+00
  0.000000E+00  2.148438E+01  0.000000E+00
  0.000000E+00  2.187500E+01  0.000000E+00
  0.000000E+00  2.226562E+01  0.000000E+00
  0.000000E+00  2.265625E+01  0.000000E+00
  0.000000E+00  2.304688E+01  0.000000E+00
  0.000000E+00  2.343750E+01  0.000000E+00
  0.000000E+00  2.382812E+01  0.000000E+00
  0.000000E+00  2.421875E+01  0.000000E+00
  0.000000E+00  2.460938E+01  0.000000E+00
  3.906250E-01  0.000000E+00  0.000000E+00
  3.906250E-01  3.906250E-01  0.000000E+00
  3.906250E-01  7.812500E-01  0.000000E+00
  3.906250E-01  1.171875E+00  0.000000E+00
  3.906250E-01  1.562500E+00  0.000000E+00
  3.906250E-01  1.953125E+00  0.000000E+00
  3.906250E-01  2.343750E+00  0.000000E+00
  3.906250E-01  2.734375E+00  0.000000E+00
  3.906250E-01  3.125000E+00  0.000000E+00
  3.906250E-01  3.515625E+00  0.000000E+00
  3.906250E-01  3.906250E+00  0.000000E+00
  3.906250E-01  4.296875E+00  0.000000E+00
  3.906250E-01  4.687500E+00  0.000000E+00
  3.906250E-01  5.078125E+00  0.000000E+00
  3.906250E-01  5.468750E+00  0.000000E+00
  3.906250E-01  5.859375E+00  0.000000E+00
  3.906250E-01  6.250000E+00  0.000000E+00
  3.906250E-01  6.640625E+00  0.000000E+00
  3.906250E-01  7.031250E+00  0.000000E+00
  3.906250E-01  7.421875E+00  0.000000E+00
  3.906250E-01  7.812500E+00  0.000000E+00
  3.906250E-01  8.203125E+00  0.000000E+00
  3.906250E-01  8.593750E+00  0.000000E+00
  3.906250E-01  8.984375E+00  0.000000E+00
  3.906250E-01  9.375000E+00  0.000000E+00
  3.906250E-01  9.765625E+00  0.000000E+00
  3.906250E-01  1.015625E+01  0.000000E+00
  3.906250E-01  1.054688E+01  0.000000E+00
  3.906250E-01  1.093750E+01  0.000000E+00
  3.906250E-01  1.132812E+01  0.000000E+00
  3.906250E-01  1.171875E+01  0.000000E+00
  3.906250E-01  1.210938E+01  0.000000E+00
  3.906250E-01  1.250000E+01  0.000000E+00
  3.906250E-01  1.289062E+01  0.000000E+00
  3.906250E-01  1.328125E+01  0.000000E+00
  3.906250E-01  1.367188E+01  0.000000E+00
  3.906250E-01  1.406250E+01  0.000000E+00
  3.906250E-01  1.445312E+01  0.000000E+00
  3.906250E-01  1.484375E+01  0.000000E+00
  3.906250E-01  1.523438E+01  0.000000E+00
  3.906250E-01  1.562500E+01  0.000000E+00
  3.906250E-01  1.601562E+01  0.000000E+00
  3.906250E-01  1.640625E+01  0.000000E+00
  3.906250E-01  1.679688E+01  0.000000E+00
  3.906250E-01  1.718750E+01  0.000000E+00
  3.906250E-01  1.757812E+01  0.000000E+00
  3.906250E-01  1.796875E+01  0.000000E+00
  3.906250E-01  1.835938E+01  0.000000E+00
  3.906250E-01  1.875000E+01  0.000000E+00
  3.906250E-01  1.914062E+01  0.000000E+00
  3.906250E-01  1.953125E+01  0.000000E+00
  3.906250E-01  1.992188E+01  0.000000E+00
  3.906250E-01  2.031250E+01  0.000000E+00
  3.906250E-01  2.070312E+01  0.000000E+00
  3.906250E-01  2.109375E+01  0.000000E+00
  3.906250E-01  2.148438E+01  0.000000E+00
  3.906250E-01  2.187500E+01  0.000000E+00
  3.906250E-01  2.226562E+01  0.000000E+00
  3.906250E-01  2.265625E+01  0.000000E+00
  3.906250E-01  2.304688E+01  0.000000E+00
  3.906250E-01  2.343750E+01  0.000000E+00
  3.906250E-01  2.382812E+01  0.000000E+00
  3.906250E-01  2.421875E+01  0.000000E+00
  3.906250E-01  2.460938E+01  0.000000E+00
  7.812500E-01  0.000000E+00  0.000000E+00
  7.812500E-01  3.906250E-01  0.000000E+00
  7.812500E-01  7.812500E-01  0.000000E+00
  7.812500E-01  1.171875E+00  0.000000E+00
  7.812500E-01  1.562500E+00  0.000000E+00
  7.812500E-01  1.953125E+00  0.000000E+00
  7.812500E-01  2.343750E+00  0.000000E+00
  7.812500E-01  2.734375E+00  0.000000E+00
  7.812500E-01  3.125000E+00  0.000000E+00
  7.812500E-01  3.515625E+00  0.000000E+00
  7.812500E-01  3.906250E+00  0.000000E+00
  7.812500E-01  4.296875E+00  0.000000E+00
  7.812500E-01  4.687500E+00  0.000000E+00
  7.812500E-01  5.078125E+00  0.000000E+00
  7.812500E-01  5.468750E+00  0.000000E+00
  7.812500E-01  5.859375E+00  0.000000E+00
  7.812500E-01  6.250000E+00  0.000000E+00
  7.812500E-01  6.640625E+00  0.000000E+00
  7.812500E-01  7.031250E+00  0.000000E+00
  7.812500E-01  7.421875E+00  0.000000E+00
  7.812500E-01  7.812500E+00  0.000000E+00
  7.812500E-01  8.203125E+00  0.000000E+00
  7.812500E-01  8.593750E+00  0.000000E+00
  7.812500E-01  8.984375E+00  0.000000E+00
  7.812500E-01  9.375000E+00  0.000000E+00
  7.812500E-01  9.765625E+00  0.000000E+00
  7.812500E-01  1.015625E+01  0.000000E+00
  7.812500E-01  1.054688E+01  0.000000E+00
  7.812500E-01  1.093750E+01  0.000000E+00
  7.812500E-01  1.132812E+01  0.000000E+00
  7.812500E-01  1.171875E+01  0.000000E+00
  7.812500E-01  1.210938E+01  0.000000E+00
  7.812500E-01  1.250000E+01  0.000000E+00
  7.812500E-01  1.289062E+01  0.000000E+00
  7.812500E-01  1.328125E+01  0.000000E+00
  7.812500E-01  1.367188E+01  0.000000E+00
  7.812500E-01  1.406250E+01  0.000000E+00
  7.812500E-01  1.445312E+01  0.000000E+00
  7.812500E-01  1.484375E+01  0.000000E+00
  7.812500E-01  1.523438E+01  0.000000E+00
  7.812500E-01  1.562500E+01  0.000000E+00
  7.812500E-01  1.601562E+01  0.000000E+00
  7.812500E-01  1.640625E+01  0.000000E+00
  7.812500E-01  1.679688E+01  0.000000E+00
  7.812500E-01  1.718750E+01  0.000000E+00
  7.812500E-01  1.757812E+01  0.000000E+00
  7.812500E-01  1.796875E+01  0.000000E+00
  7.812500E-01  1.835938E+01  0.000000E+00
  7.812500E-01  1.875000E+01  0.000000E+00
  7.812500E-01  1.914062E+01  0.000000E+00
  7.812500E-01  1.953125E+01  0.000000E+00
  7.812500E-01  1.992188E+01  0.000000E+00
  7.812500E-01  2.031250E+01  0.000000E+00
  7.812500E-01  2.070312E+01  0.000000E+00
  7.812500E-01  2.109375E+01  0.000000E+00
  7.812500E-01  2.148438E+01  0.000000E+00
  7.812500E-01  2.187500E+01  0.000000E+00
  7.812500E-01  2.226562E+01  0.000000E+00
  7.812500E-01  2.265625E+01  0.000000E+00
  7.812500E-01  2.304688E+01  0.000000E+00
  7.812500E-01  2.343750E+01  0.000000E+00
  7.812500E-01  2.382812E+01  0.000000E+00
  7.812500E-01  2.421875E+01  0.000000E+00
  7.812500E-01  2.460938E+01  0.000000E+00
  1.171875E+00  0.000000E+00  0.000000E+00
  1.171875E+00  3.906250E-01  0.000000E+00
  1.171875E+00  7.812500E-01  0.000000E+00
  1.171875E+00  1.171875E+00  0.000000E+00
  1.171875E+00  1.562500E+00  0.000000E+00
  1.171875E+00  1.953125E+00  0.000000E+00
  1.171875E+00  2.343750E+00  0.000000E+00
  1.171875E+00  2.734375E+00  0.000000E+00
  1.171875E+00  3.125000E+00  0.000000E+00
  1.171875E+00  3.515625E+00  0.000000E+00
  1.171875E+00  3.906250E+00  0.000000E+00
  1.171875E+00  4.296875E+00  0.000000E+00
  1.171875E+00  4.687500E+00  0.000000E+00
  1.171875E+00  5.078125E+00  0.000000E+00
  1.171875E+00  5.468750E+00  0.000000E+00
  1.171875E+00  5.859375E+00  0.000000E+00
  1.171875E+00  6.250000E+00  0.000000E+00
  1.171875E+00  6.640625E+00  0.000000E+00
  1.171875E+00  7.031250E+00  0.000000E+00
  1.171875E+00  7.421875E+00  0.000000E+00
  1.171875E+00  7.812500E+00  0.000000E+00
  1.171875E+00  8.203125E+00  0.000000E+00
  1.171875E+00  8.593750E+00  0.000000E+00
  1.171875E+00  8.984375E+00  0.000000E+00
  1.171875E+00  9.375000E+00  0.000000E+00
  1.171875E+00  9.765625E+00  0.000000E+00
  1.171875E+00  1.015625E+01  0.000000E+00
  1.171875E+00  1.054688E+01  0.000000E+00
  1.171875E+00  1.093750E+01  0.000000E+00
  1.171875E+00  1.132812E+01  0.000000E+00
  1.171875E+00  1.171875E+01  0.000000E+00
  1.171875E+00  1.210938E+01  0.000000E+00
  1.171875E+00  1.250000E+01  0.000000E+00
  1.171875E+00  1.289062E+01  0.000000E+00
  1.171875E+00  1.328125E+01  0.000000E+00
  1.171875E+00  1.367188E+01  0.000000E+00
  1.171875E+00  1.406250E+01  0.000000E+00
  1.171875E+00  1.445312E+01  0.000000E+00
[...]
POINT_DATA   4096
SCALARS CON  float  1
LOOKUP_TABLE default
  4.211142E-01
  4.200498E-01
  4.252558E-01
  4.235112E-01
  4.240499E-01
  4.180309E-01
  4.192370E-01
  4.182261E-01
  4.234994E-01
  4.216329E-01
  4.225920E-01
  4.175258E-01
  4.188148E-01
  4.160762E-01
  4.191619E-01
  4.174193E-01
  4.217512E-01
  4.211130E-01
  4.246268E-01
  4.206889E-01
  4.206430E-01
  4.154930E-01
  4.166712E-01
  4.133034E-01
  4.151518E-01
  4.116163E-01
  4.141695E-01
  4.135496E-01
  4.201226E-01
  4.210419E-01
  4.241343E-01
  4.186360E-01
  4.182703E-01
  4.155491E-01
  4.207912E-01
  4.203873E-01
  4.224714E-01
  4.169641E-01
  4.168142E-01
  4.130323E-01
  4.157774E-01
  4.133124E-01
  4.155745E-01
  4.123576E-01
  4.146386E-01
  4.122454E-01
  4.163300E-01
  4.171238E-01
  4.244349E-01
  4.247966E-01
  4.261589E-01
  4.184941E-01
  4.161256E-01
  4.119461E-01
  4.174001E-01
  4.206107E-01
  4.292072E-01
  4.293922E-01
  4.307203E-01
  4.243588E-01
  4.239552E-01
  4.200420E-01
  4.221330E-01
  4.186823E-01
  4.212959E-01
  4.215751E-01
  4.283512E-01
  4.287466E-01
  4.284259E-01
  4.200912E-01
  4.175279E-01
  4.149558E-01
  4.197008E-01
  4.195205E-01
  4.218091E-01
  4.190500E-01
  4.213024E-01
  4.190287E-01
  4.199859E-01
  4.162798E-01
  4.189102E-01
  4.196553E-01
  4.250394E-01
  4.232516E-01
  4.225956E-01
  4.164337E-01
  4.162176E-01
  4.139725E-01
  4.172574E-01
  4.156768E-01
  4.176651E-01
  4.155898E-01
  4.193248E-01
  4.195027E-01
  4.230021E-01
  4.198725E-01
  4.200419E-01
  4.166224E-01
  4.189137E-01
  4.169427E-01
  4.184957E-01
  4.152755E-01
  4.172163E-01
  4.154653E-01
  4.174171E-01
  4.134128E-01
  4.131363E-01
  4.094641E-01
  4.116489E-01
  4.104612E-01
  4.147482E-01
  4.167545E-01
  4.247887E-01
  4.266600E-01
  4.277799E-01
  4.199695E-01
  4.169444E-01
  4.142949E-01
  4.212335E-01
  4.258890E-01
  4.329068E-01
  4.307500E-01
  4.289797E-01
  4.219387E-01
  4.216001E-01
  4.194117E-01
  4.220459E-01
  4.192748E-01
  4.147329E-01
  4.204475E-01
  4.283605E-01
  4.304614E-01
  4.282498E-01
  4.209673E-01
  4.171650E-01
  4.157246E-01
  4.187981E-01
  4.200843E-01
  4.218365E-01
  4.210285E-01
  4.218981E-01
  4.206615E-01
  4.205737E-01
  4.187737E-01
  4.199831E-01
  4.208066E-01
  4.234490E-01
  4.227354E-01
  4.219324E-01
  4.185692E-01
  4.175152E-01
  4.157696E-01
  4.165255E-01
  4.155337E-01
  4.159967E-01
  4.147798E-01
  4.159615E-01
  4.157047E-01
  4.165295E-01
  4.145875E-01
  4.147324E-01
  4.150199E-01
  4.187277E-01
  4.200564E-01
  4.206546E-01
  4.174875E-01
  4.162410E-01
  4.145335E-01
  4.150035E-01
  4.126572E-01
  4.110130E-01
  4.080523E-01
  4.087071E-01
  4.097574E-01
  4.143718E-01
  4.186673E-01
  4.250115E-01
  4.272200E-01
  4.266762E-01
  4.208172E-01
  4.171333E-01
  4.154781E-01
  4.199333E-01
  4.249421E-01
  4.308249E-01
  4.310688E-01
  4.283999E-01
  4.211068E-01
  4.158908E-01
  4.111226E-01
  4.104607E-01
  4.102600E-01
  4.144314E-01
  4.214489E-01
  4.273197E-01
  4.311136E-01
  4.263718E-01
  4.196319E-01
  4.126262E-01
  4.122753E-01
  4.138591E-01
  4.182410E-01
  4.200083E-01
  4.229540E-01
  4.232673E-01
  4.238608E-01
  4.206639E-01
  4.190616E-01
  4.175901E-01
  4.205780E-01
  4.223861E-01
  4.243634E-01
  4.220791E-01
  4.207228E-01
  4.182988E-01
  4.192207E-01
  4.190252E-01
  4.201998E-01
  4.181263E-01
  4.169125E-01
  4.142343E-01
  4.151572E-01
  4.158201E-01
  4.184759E-01
  4.180326E-01
  4.182750E-01
  4.162994E-01
  4.164249E-01
  4.150692E-01
  4.163772E-01
  4.168502E-01
  4.192464E-01
  4.178833E-01
  4.159577E-01
  4.117459E-01
  4.116810E-01
  4.124703E-01
  4.159308E-01
  4.167863E-01
  4.194225E-01
  4.209781E-01
  4.239499E-01
  4.222063E-01
  4.196051E-01
  4.156774E-01
  4.174274E-01
  4.211799E-01
  4.277297E-01
  4.297506E-01
  4.293069E-01
  4.234555E-01
  4.185921E-01
  4.133511E-01
  4.121883E-01
  4.106871E-01
  4.123160E-01
  4.116626E-01
  4.210208E-01
  4.242062E-01
  4.279210E-01
  4.210399E-01
  4.173507E-01
  4.105215E-01
  4.124830E-01
  4.120368E-01
  4.178073E-01
  4.182668E-01
  4.230316E-01
  4.210911E-01
  4.228010E-01
  4.185547E-01
  4.200872E-01
  4.177766E-01
  4.216188E-01
  4.201884E-01
  4.232379E-01
  4.204124E-01
  4.223843E-01
  4.186235E-01
  4.195332E-01
  4.152766E-01
  4.168084E-01
  4.135987E-01
  4.154045E-01
  4.119742E-01
  4.145007E-01
  4.130543E-01
  4.171287E-01
  4.153072E-01
  4.180538E-01
  4.157901E-01
  4.189690E-01
  4.165424E-01
  4.187507E-01
  4.159088E-01
  4.185460E-01
  4.153072E-01
  4.160240E-01
  4.116873E-01
  4.147657E-01
  4.152664E-01
  4.212561E-01
  4.198702E-01
  4.215757E-01
  4.177933E-01
  4.198265E-01
  4.165124E-01
  4.176402E-01
  4.137621E-01
  4.166472E-01
  4.163163E-01
  4.221758E-01
  4.223187E-01
  4.258214E-01
  4.215363E-01
  4.203120E-01
  4.130167E-01
  4.114832E-01
  4.066512E-01
  4.099266E-01
  4.162443E-01
  4.222378E-01
  4.222466E-01
  4.255333E-01
  4.185972E-01
  4.157455E-01
  4.081859E-01
  4.099231E-01
  4.086069E-01
  4.149265E-01
  4.155482E-01
  4.215816E-01
  4.197659E-01
  4.218464E-01
  4.165172E-01
  4.180425E-01
  4.158433E-01
  4.217403E-01
  4.215633E-01
  4.257693E-01
  4.218511E-01
  4.229421E-01
  4.175493E-01
  4.183333E-01
  4.136901E-01
  4.162178E-01
  4.133573E-01
  4.162945E-01
  4.130136E-01
  4.171438E-01
  4.173068E-01
  4.237806E-01
  4.213167E-01
  4.214893E-01
  4.145375E-01
  4.154932E-01
  4.130310E-01
  4.183793E-01
  4.179713E-01
  4.223702E-01
  4.180388E-01
  4.179121E-01
  4.130262E-01
  4.183732E-01
  4.208233E-01
  4.279555E-01
  4.239238E-01
  4.223284E-01
  4.150445E-01
  4.164766E-01
  4.133543E-01
  4.160653E-01
  4.126107E-01
  4.164035E-01
  4.154885E-01
  4.206110E-01
  4.182405E-01
  4.206594E-01
  4.167489E-01
  4.195314E-01
  4.166677E-01
  4.196094E-01
  4.158388E-01
  4.182949E-01
  4.153003E-01
  4.200068E-01
  4.195440E-01
  4.217829E-01
  4.170683E-01
  4.165662E-01
  4.121108E-01
  4.136707E-01
  4.117031E-01
  4.157231E-01
  4.156823E-01
  4.198272E-01
  4.174417E-01
  4.185587E-01
  4.152893E-01
  4.186343E-01
  4.189083E-01
  4.242898E-01
  4.236572E-01
  4.261942E-01
  4.226414E-01
  4.229639E-01
  4.172202E-01
  4.152602E-01
  4.091495E-01
  4.103476E-01
  4.095137E-01
  4.143762E-01
  4.139168E-01
  4.180735E-01
  4.181154E-01
  4.227729E-01
  4.205773E-01
  4.211918E-01
  4.171989E-01
  4.198598E-01
  4.188845E-01
  4.222016E-01
  4.195250E-01
  4.207060E-01
  4.162810E-01
  4.164136E-01
  4.132649E-01
  4.181755E-01
  4.209744E-01
  4.276762E-01
  4.251418E-01
  4.234158E-01
  4.163475E-01
  4.163674E-01
  4.137800E-01
  4.163655E-01
  4.135218E-01
  4.151509E-01
  4.123649E-01
  4.149273E-01
  4.132579E-01
  4.169728E-01
  4.163729E-01
  4.204025E-01
  4.185284E-01
  4.199194E-01
  4.156535E-01
  4.169068E-01
  4.174111E-01
  4.181715E-01
  4.180223E-01
  4.206366E-01
  4.193471E-01
  4.191694E-01
  4.159224E-01
  4.158331E-01
  4.143279E-01
  4.166108E-01
  4.170848E-01
  4.198748E-01
  4.187830E-01
  4.189368E-01
  4.164421E-01
  4.181781E-01
  4.197543E-01
  4.252362E-01
  4.270584E-01
  4.286176E-01
  4.247885E-01
  4.222157E-01
  4.169277E-01
  4.147616E-01
  4.113810E-01
  4.127348E-01
  4.133912E-01
  4.168782E-01
  4.171329E-01
  4.203424E-01
  4.224720E-01
  4.272432E-01
  4.263977E-01
  4.244467E-01
  4.191349E-01
  4.189281E-01
  4.190370E-01
  4.226133E-01
  4.225569E-01
  4.232640E-01
  4.195821E-01
  4.178264E-01
  4.151840E-01
  4.185631E-01
  4.216753E-01
  4.259711E-01
  4.235955E-01
  4.210564E-01
  4.166862E-01
  4.174061E-01
  4.167611E-01
  4.179323E-01
  4.157364E-01
  4.167716E-01
  4.163835E-01
  4.184019E-01
  4.163534E-01
  4.159930E-01
  4.141943E-01
  4.173051E-01
  4.192467E-01
  4.229317E-01
  4.215996E-01
  4.208420E-01
  4.125327E-01
  4.140557E-01
  4.156193E-01
  4.186675E-01
  4.200497E-01
  4.219665E-01
  4.217938E-01
  4.219400E-01
  4.204984E-01
  4.208096E-01
  4.205568E-01
  4.212171E-01
  4.195353E-01
  4.186130E-01
  4.175859E-01
  4.198015E-01
  4.222342E-01
  4.257690E-01
  4.264547E-01
  4.262396E-01
  4.232557E-01
  4.209129E-01
  4.171702E-01
  4.147234E-01
  4.120965E-01
  4.129528E-01
  4.147505E-01
  4.180365E-01
  4.187089E-01
  4.196516E-01
  4.198949E-01
  4.219789E-01
  4.221340E-01
  4.224909E-01
  4.220094E-01
  4.240687E-01
  4.249213E-01
  4.250277E-01
  4.217277E-01
  4.191427E-01
  4.163349E-01
  4.160583E-01
  4.156140E-01
  4.172569E-01
  4.181201E-01
  4.196737E-01
  4.187765E-01
  4.185041E-01
  4.177821E-01
  4.194640E-01
  4.199277E-01
  4.202918E-01
  4.183291E-01
  4.179859E-01
  4.177287E-01
  4.192788E-01
  4.188159E-01
  4.184491E-01
  4.167047E-01
  4.169830E-01
  4.166188E-01
  4.169742E-01
  4.150205E-01
  4.139053E-01
  4.132251E-01
  4.130592E-01
  4.148783E-01
  4.187533E-01
  4.213111E-01
  4.228135E-01
  4.222029E-01
  4.217736E-01
  4.209526E-01
  4.214785E-01
  4.218339E-01
  4.226423E-01
  4.217306E-01
  4.203912E-01
  4.182400E-01
  4.180644E-01
  4.193602E-01
  4.228370E-01
  4.250741E-01
  4.254381E-01
  4.224124E-01
  4.191396E-01
  4.162385E-01
  4.158840E-01
  4.166290E-01
  4.193332E-01
  4.215362E-01
  4.229502E-01
  4.216058E-01
  4.204297E-01
  4.201661E-01
  4.221101E-01
  4.227790E-01
  4.222862E-01
  4.205501E-01
  4.207638E-01
  4.214215E-01
  4.221369E-01
  4.205505E-01
  4.187229E-01
  4.166056E-01
  4.163542E-01
  4.166905E-01
  4.182482E-01
  4.183964E-01
  4.176794E-01
  4.155569E-01
  4.154211E-01
  4.171283E-01
  4.207769E-01
  4.222713E-01
  4.216911E-01
  4.194634E-01
  4.198636E-01
  4.222143E-01
  4.253313E-01
  4.247262E-01
  4.214643E-01
  4.169966E-01
  4.156009E-01
  4.162674E-01
  4.182194E-01
  4.177958E-01
  4.159890E-01
  4.103272E-01
  4.119153E-01
  4.139694E-01
  4.174709E-01
  4.196751E-01
  4.220950E-01
  4.224697E-01
  4.227513E-01
  4.216109E-01
  4.219449E-01
  4.219083E-01
  4.224435E-01
  4.206692E-01
  4.190230E-01
  4.170021E-01
  4.175819E-01
  4.186935E-01
  4.213560E-01
  4.223936E-01
  4.228042E-01
  4.205118E-01
  4.183597E-01
  4.155649E-01
  4.149840E-01
  4.152810E-01
  4.184792E-01
  4.214592E-01
  4.239071E-01
  4.223133E-01
  4.195453E-01
  4.160860E-01
  4.154616E-01
  4.155249E-01
  4.175253E-01
  4.193009E-01
  4.223102E-01
  4.229844E-01
  4.217389E-01
  4.170846E-01
  4.135258E-01
  4.115571E-01
  4.134929E-01
  4.156595E-01
  4.177630E-01
  4.168829E-01
  4.158795E-01
  4.146563E-01
  4.164569E-01
  4.190339E-01
  4.225102E-01
  4.228686E-01
  4.216339E-01
  4.185888E-01
  4.181470E-01
  4.193185E-01
  4.226863E-01
  4.238812E-01
  4.236795E-01
  4.209543E-01
  4.192096E-01
  4.170227E-01
  4.157870E-01
  4.131220E-01
  4.115709E-01
  4.137389E-01
  4.140422E-01
  4.148463E-01
  4.183999E-01
  4.196447E-01
  4.209702E-01
  4.192124E-01
  4.187542E-01
  4.172357E-01
  4.185722E-01
  4.191077E-01
  4.211327E-01
  4.200638E-01
  4.190518E-01
  4.158142E-01
  4.154708E-01
  4.158546E-01
  4.200233E-01
  4.226675E-01
  4.247826E-01
  4.219876E-01
  4.190058E-01
  4.149166E-01
  4.148892E-01
  4.159116E-01
  4.204557E-01
  4.233261E-01
  4.257817E-01
  4.234995E-01
  4.212675E-01
  4.181039E-01
  4.183621E-01
  4.175865E-01
  4.179265E-01
  4.163243E-01
  4.172262E-01
  4.172254E-01
  4.184041E-01
  4.164614E-01
  4.153701E-01
  4.132628E-01
  4.145823E-01
  4.157907E-01
  4.188490E-01
  4.188118E-01
  4.188027E-01
  4.169078E-01
  4.183073E-01
  4.197829E-01
  4.227470E-01
  4.215369E-01
  4.194844E-01
  4.157143E-01
  4.163499E-01
  4.184032E-01
  4.229244E-01
  4.237659E-01
  4.237071E-01
  4.210608E-01
  4.210763E-01
  4.204599E-01
  4.212295E-01
  4.188388E-01
  4.169612E-01
  4.120721E-01
  4.146196E-01
  4.150251E-01
  4.180656E-01
  4.183581E-01
  4.207479E-01
  4.193485E-01
  4.193585E-01
  4.165600E-01
  4.175017E-01
  4.170563E-01
  4.191028E-01
  4.171590E-01
  4.168803E-01
  4.146106E-01
  4.166079E-01
  4.173699E-01
  4.212012E-01
  4.220062E-01
  4.243046E-01
  4.221859E-01
  4.208898E-01
  4.160446E-01
  4.144406E-01
  4.123230E-01
  4.154572E-01
  4.176870E-01
  4.220528E-01
  4.213417E-01
  4.207389E-01
  4.166878E-01
  4.161952E-01
  4.145401E-01
  4.165674E-01
  4.166369E-01
  4.195015E-01
  4.189453E-01
  4.192713E-01
  4.154647E-01
  4.143273E-01
  4.122217E-01
  4.146102E-01
  4.151521E-01
  4.177657E-01
  4.169027E-01
  4.185159E-01
  4.181300E-01
  4.209168E-01
  4.206856E-01
  4.216281E-01
  4.182164E-01
  4.166129E-01
  4.130692E-01
  4.138656E-01
  4.139011E-01
  4.177387E-01
  4.192630E-01
  4.229819E-01
  4.230467E-01
  4.241911E-01
  4.208564E-01
  4.188026E-01
  4.141195E-01
  4.134520E-01
  4.160344E-01
  4.170279E-01
  4.164729E-01
  4.189998E-01
  4.191553E-01
  4.205536E-01
  4.181107E-01
  4.171950E-01
  4.143863E-01
  4.152441E-01
  4.150189E-01
  4.173588E-01
  4.165269E-01
  4.170471E-01
  4.151310E-01
  4.164848E-01
  4.168625E-01
  4.206042E-01
  4.221954E-01
  4.251481E-01
  4.236927E-01
  4.224195E-01
  4.177571E-01
  4.160276E-01
  4.136850E-01
  4.155692E-01
  4.163900E-01
  4.196036E-01
  4.194762E-01
  4.206683E-01
  4.193824E-01
  4.207915E-01
  4.195418E-01
  4.194742E-01
  4.162868E-01
  4.159993E-01
  4.147890E-01
  4.169614E-01
  4.169596E-01
  4.188117E-01
  4.176359E-01
  4.183091E-01
  4.167383E-01
  4.181050E-01
  4.176564E-01
  4.194926E-01
  4.185463E-01
  4.195546E-01
  4.178716E-01
  4.178632E-01
  4.147528E-01
  4.140490E-01
  4.124856E-01
  4.152879E-01
  4.168589E-01
  4.202261E-01
  4.199099E-01
  4.210801E-01
  4.198634E-01
  4.210709E-01
  4.195742E-01
  4.198755E-01
  4.176143E-01
  4.178405E-01
  4.163395E-01
  4.177705E-01
  4.172253E-01
  4.174356E-01
  4.179638E-01
  4.197542E-01
  4.199804E-01
  4.193820E-01
  4.172796E-01
  4.163991E-01
  4.156830E-01
  4.158447E-01
  4.149891E-01
  4.152741E-01
  4.162454E-01
  4.189600E-01
  4.204233E-01
  4.212396E-01
  4.208898E-01
  4.220317E-01
  4.228607E-01
  4.231095E-01
  4.202360E-01
  4.164274E-01
  4.122065E-01
  4.107381E-01
  4.111555E-01
  4.139672E-01
  4.159029E-01
  4.170221E-01
  4.161196E-01
  4.159774E-01
  4.160979E-01
  4.177022E-01
  4.185510E-01
  4.194081E-01
  4.185908E-01
  4.178436E-01
  4.165670E-01
  4.169195E-01
  4.172837E-01
  4.181010E-01
  4.172823E-01
  4.167514E-01
  4.161155E-01
  4.171088E-01
  4.174865E-01
  4.176362E-01
  4.158775E-01
  4.143738E-01
  4.128466E-01
  4.135671E-01
  4.150141E-01
  4.175011E-01
  4.183378E-01
  4.187155E-01
  4.180833E-01
  4.185902E-01
  4.183040E-01
  4.175771E-01
  4.148644E-01
  4.130373E-01
  4.123604E-01
  4.144542E-01
  4.236670E-01
  4.214282E-01
  4.194549E-01
  4.173488E-01
  4.180558E-01
  4.179867E-01
  4.186415E-01
  4.174202E-01
  4.173162E-01
  4.161150E-01
  4.162983E-01
  4.152603E-01
  4.157216E-01
  4.156784E-01
  4.179117E-01
  4.193276E-01
  4.213519E-01
  4.210788E-01
  4.218732E-01
  4.220179E-01
  4.235299E-01
  4.225285E-01
  4.209565E-01
  4.170314E-01
  4.145639E-01
  4.120474E-01
  4.124558E-01
  4.129873E-01
  4.150977E-01
  4.153940E-01
  4.166192E-01
  4.170619E-01
  4.191957E-01
  4.194129E-01
  4.194187E-01
  4.171375E-01
  4.163584E-01
  4.155647E-01
  4.173982E-01
  4.184946E-01
  4.200533E-01
  4.189418E-01
  4.185432E-01
  4.177114E-01
  4.190819E-01
  4.187134E-01
  4.179265E-01
  4.147133E-01
  4.131948E-01
  4.119056E-01
  4.133650E-01
  4.148352E-01
  4.186388E-01
  4.213838E-01
  4.238391E-01
  4.221611E-01
  4.194192E-01
  4.149547E-01
  4.128071E-01
  4.109624E-01
  4.120909E-01
  4.139625E-01
  4.186407E-01
  4.217607E-01
  4.256760E-01
  4.236092E-01
  4.205570E-01
  4.163391E-01
  4.161901E-01
  4.164085E-01
  4.187305E-01
  4.186738E-01
  4.194421E-01
  4.180042E-01
  4.176790E-01
  4.150801E-01
  4.143278E-01
  4.137405E-01
  4.174619E-01
  4.206993E-01
  4.239043E-01
  4.224134E-01
  4.212580E-01
  4.196534E-01
  4.213741E-01
  4.211591E-01
  4.204264E-01
  4.158764E-01
  4.125935E-01
  4.092664E-01
  4.102085E-01
  4.114741E-01
  4.143008E-01
  4.136423E-01
  4.133033E-01
  4.122792E-01
  4.154397E-01
  4.185638E-01
  4.225137E-01
  4.221652E-01
  4.209964E-01
  4.172436E-01
  4.159618E-01
  4.145970E-01
  4.160029E-01
  4.159584E-01
  4.174904E-01
  4.176041E-01
  4.195221E-01
  4.188795E-01
  4.181246E-01
  4.145013E-01
  4.130779E-01
  4.119597E-01
  4.146315E-01
  4.169978E-01
  4.210891E-01
  4.220507E-01
  4.221296E-01
  4.183328E-01
  4.157358E-01
  4.124873E-01
  4.118966E-01
  4.100184E-01
  4.105313E-01
  4.116015E-01
  4.171109E-01
  4.218166E-01
  4.303084E-01
  4.262503E-01
  4.218512E-01
  4.175843E-01
  4.164495E-01
  4.152649E-01
  4.156275E-01
  4.152599E-01
  4.164888E-01
  4.164542E-01
  4.167672E-01
  4.150451E-01
  4.144073E-01
  4.137430E-01
  4.159447E-01
  4.179842E-01
  4.205396E-01
  4.202793E-01
  4.201024E-01
  4.189517E-01
  4.195586E-01
  4.189428E-01
  4.186818E-01
  4.164313E-01
  4.151440E-01
  4.134290E-01
  4.142466E-01
  4.149911E-01
  4.166412E-01
  4.159985E-01
  4.162953E-01
  4.169913E-01
  4.205572E-01
  4.225965E-01
  4.232364E-01
  4.201770E-01
  4.177744E-01
  4.156053E-01
  4.162699E-01
  4.163633E-01
  4.170571E-01
  4.162169E-01
  4.175051E-01
  4.192855E-01
  4.222887E-01
  4.214956E-01
  4.184907E-01
  4.133452E-01
  4.115296E-01
  4.117946E-01
  4.151456E-01
  4.176181E-01
  4.207529E-01
  4.217865E-01
  4.222105E-01
  4.192373E-01
  4.161251E-01
  4.123331E-01
  4.113126E-01
  4.110017E-01
  4.138920E-01
  4.179822E-01
  4.246898E-01
  4.289588E-01
  4.257959E-01
  4.236255E-01
  4.208438E-01
  4.167825E-01
  4.158098E-01
  4.148524E-01
  4.158531E-01
  4.152726E-01
  4.160617E-01
  4.154433E-01
  4.159547E-01
  4.141948E-01
  4.134700E-01
  4.122899E-01
  4.145715E-01
  4.165346E-01
  4.188124E-01
  4.171536E-01
  4.156288E-01
  4.137198E-01
  4.154688E-01
  4.168741E-01
  4.187615E-01
  4.171096E-01
  4.156445E-01
  4.134056E-01
  4.147269E-01
  4.161808E-01
  4.184998E-01
  4.172056E-01
  4.163152E-01
  4.155964E-01
  4.190920E-01
  4.220393E-01
  4.245245E-01
  4.225453E-01
  4.202564E-01
  4.165342E-01
  4.152637E-01
  4.136104E-01
  4.142864E-01
  4.143789E-01
  4.168806E-01
  4.184595E-01
  4.207350E-01
  4.193321E-01
  4.171135E-01
  4.128810E-01
  4.116699E-01
  4.114554E-01
  4.144541E-01
  4.164394E-01
  4.191130E-01
  4.187269E-01
  4.181306E-01
  4.155187E-01
  4.155417E-01
  4.159429E-01
  4.184111E-01
  4.183310E-01
  4.186020E-01
  4.180600E-01
  4.209710E-01
  4.234220E-01
  4.241516E-01
  4.204387E-01
  4.202675E-01
  4.170057E-01
  4.178443E-01
  4.147677E-01
  4.150662E-01
  4.118933E-01
  4.131277E-01
  4.115059E-01
  4.141166E-01
  4.132426E-01
  4.159100E-01
  4.145744E-01
  4.165909E-01
  4.145290E-01
  4.156177E-01
  4.125236E-01
  4.132193E-01
  4.113044E-01
  4.146663E-01
  4.155320E-01
  4.199730E-01
  4.193480E-01
  4.209661E-01
  4.185526E-01
  4.207078E-01
  4.198850E-01
  4.221970E-01
  4.196754E-01
  4.210616E-01
  4.204460E-01
  4.244852E-01
  4.231149E-01
  4.223388E-01
  4.163233E-01
  4.153648E-01
  4.133475E-01
  4.165779E-01
  4.158856E-01
  4.178868E-01
  4.159896E-01
  4.188261E-01
  4.189989E-01
  4.221151E-01
  4.188423E-01
  4.168747E-01
  4.112539E-01
  4.115577E-01
  4.106069E-01
  4.143739E-01
  4.143868E-01
  4.178289E-01
  4.173852E-01
  4.202245E-01
  4.189211E-01
  4.214745E-01
  4.210033E-01
  4.244679E-01
  4.233790E-01
  4.249706E-01
  4.226842E-01
  4.246838E-01
  4.230429E-01
  4.172655E-01
  4.158298E-01
  4.190460E-01
  4.161126E-01
  4.185123E-01
  4.156626E-01
  4.179470E-01
  4.140350E-01
  4.150750E-01
  4.113018E-01
  4.142019E-01
  4.127669E-01
  4.170970E-01
  4.159359E-01
  4.197912E-01
  4.171262E-01
  4.181046E-01
  4.122299E-01
  4.120939E-01
  4.090075E-01
  4.143625E-01
  4.158674E-01
  4.216738E-01
  4.193261E-01
  4.205435E-01
  4.167679E-01
  4.203014E-01
  4.194349E-01
  4.228731E-01
  4.188185E-01
  4.196869E-01
  4.167184E-01
  4.208120E-01
  4.191441E-01
  4.211539E-01
  4.165667E-01
  4.176537E-01
  4.140756E-01
  4.162541E-01
  4.133023E-01
  4.165538E-01
  4.154815E-01
  4.202836E-01
  4.189221E-01
  4.214110E-01
  4.169668E-01
  4.174327E-01
  4.130315E-01
  4.150167E-01