# vtk DataFile Version 2.0
title
ASCII
DATASET STRUCTURED_GRID
DIMENSIONS   64   64    1
POINTS   4096  float
  0.000000E+00  0.000000E+00  0.000000E+00
  0.000000E+00  3.906250E-01  0.000000E+00
  0.000000E+00  7.812500E-01  0.000000E+00
  0.000000E+00  1.171875E+00  0.000000E+00
  0.000000E+00  1.562500E+00  0.000000E+00
  0.000000E+00  1.953125E+00  0.000000E+00
  0.000000E+00  2.343750E+00  0.000000E+00
  0.000000E+00  2.734375E+00  0.000000E+00
  0.000000E+00  3.125000E+00  0.000000E+00
  0.000000E+00  3.515625E+00  0.000000E+00
  0.000000E+00  3.906250E+00  0.000000E+00
  0.000000E+00  4.296875E+00  0.000000E+00
  0.000000E+00  4.687500E+00  0.000000E+00
  0.000000E+00  5.078125E+00  0.000000E+00
  0.000000E+00  5.468750E+00  0.000000E+00
  0.000000E+00  5.859375E+00  0.000000E+00
  0.000000E+00  6.250000E+00  0.000000E+00
  0.000000E+00  6.640625E+00  0.000000E+00
  0.000000E+00  7.031250E+00  0.000000E+00
  0.000000E+00  7.421875E+00  0.000000E+00
  0.000000E+00  7.812500E+00  0.000000E+00
  0.000000E+00  8.203125E+00  0.000000E+00
  0.000000E+00  8.593750E+00  0.000000E+00
  0.000000E+00  8.984375E+00  0.000000E+00
  0.000000E+00  9.375000E+00  0.000000E+00
  0.000000E+00  9.765625E+00  0.000000E+00
  0.000000E+00  1.015625E+01  0.000000E+00
  0.000000E+00  1.054688E+01  0.000000E+00
  0.000000E+00  1.093750E+01  0.000000E+00
  0.000000E+00  1.132812E+01  0.000000E+00
  0.000000E+00  1.171875E+01  0.000000E+00
  0.000000E+00  1.210938E+01  0.000000E+00
  0.000000E+00  1.250000E+01  0.000000E+00
  0.000000E+00  1.289062E+01  0.000000E+00
  0.000000E+00  1.328125E+01  0.000000E+00
  0.000000E+00  1.367188E+01  0.000000E+00
  0.000000E+00  1.406250E+01  0.000000E+00
  0.000000E+00  1.445312E+01  0.000000E+00
  0.000000E+00  1.484375E+01  0.000000E+00
  0.000000E+00  1.523438E+01  0.000000E+00
  0.000000E+00  1.562500E+01  0.000000E+00
  0.000000E+00  1.601562E+01  0.000000E+00
  0.000000E+00  1.640625E+01  0.000000E+00
  0.000000E+00  1.679688E+01  0.000000E+00
  0.000000E+00  1.718750E+01  0.000000E+00
  0.000000E+00  1.757812E+01  0.000000E+00
  0.000000E+00  1.796875E+01  0.000000E+00
  0.000000E+00  1.835938E+01  0.000000E+00
  0.000000E+00  1.875000E+01  0.000000E+00
  0.000000E+00  1.914062E+01  0.000000E+00
  0.000000E+00  1.953125E+01  0.000000E+00
  0.000000E+00  1.992188E+01  0.000000E+00
  0.000000E+00  2.031250E+01  0.000000E+00
  0.000000E+00  2.070312E+01  0.000000E+00
  0.000000E+00  2.109375E+01  0.000000E+00
  0.000000E+00  2.148438E+01  0.000000E+00
  0.000000E+00  2.187500E+01  0.000000E+00
  0.000000E+00  2.226562E+01  0.000000E+00
  0.000000E+00  2.265625E+01  0.000000E+00
  0.000000E+00  2.304688E+01  0.000000E+00
  0.000000E+00  2.343750E+01  0.000000E+00
  0.000000E+00  2.382812E+01  0.000000E+00
  0.000000E+00  2.421875E+01  0.000000E+00
  0.000000E+00  2.460938E+01  0.000000E+00
  3.906250E-01  0.000000E+00  0.000000E+00
  3.906250E-01  3.906250E-01  0.000000E+00
  3.906250E-01  7.812500E-01  0.000000E+00
  3.906250E-01  1.171875E+00  0.000000E+00
  3.906250E-01  1.562500E+00  0.000000E+00
  3.906250E-01  1.953125E+00  0.000000E+00
  3.906250E-01  2.343750E+00  0.000000E+00
  3.906250E-01  2.734375E+00  0.000000E+00
  3.906250E-01  3.125000E+00  0.000000E+00
  3.906250E-01  3.515625E+00  0.000000E+00
  3.906250E-01  3.906250E+00  0.000000E+00
  3.906250E-01  4.296875E+00  0.000000E+00
  3.906250E-01  4.687500E+00  0.000000E+00
  3.906250E-01  5.078125E+00  0.000000E+00
  3.906250E-01  5.468750E+00  0.000000E+00
  3.906250E-01  5.859375E+00  0.000000E+00
  3.906250E-01  6.250000E+00  0.000000E+00
  3.906250E-01  6.640625E+00  0.000000E+00
  3.906250E-01  7.031250E+00  0.000000E+00
  3.906250E-01  7.421875E+00  0.000000E+00
  3.906250E-01  7.812500E+00  0.000000E+00
  3.906250E-01  8.203125E+00  0.000000E+00
  3.906250E-01  8.593750E+00  0.000000E+00
  3.906250E-01  8.984375E+00  0.000000E+00
  3.906250E-01  9.375000E+00  0.000000E+00
  3.906250E-01  9.765625E+00  0.000000E+00
  3.906250E-01  1.015625E+01  0.000000E+00
  3.906250E-01  1.054688E+01  0.000000E+00
  3.906250E-01  1.093750E+01  0.000000E+00
  3.906250E-01  1.132812E+01  0.000000E+00
  3.906250E-01  1.171875E+01  0.000000E+00
  3.906250E-01  1.210938E+01  0.000000E+00
  3.906250E-01  1.250000E+01  0.000000E+00
  3.906250E-01  1.289062E+01  0.000000E+00
  3.906250E-01  1.328125E+01  0.000000E+00
  3.906250E-01  1.367188E+01  0.000000E+00
  3.906250E-01  1.406250E+01  0.000000E+00
  3.906250E-01  1.445312E+01  0.000000E+00
  3.906250E-01  1.484375E+01  0.000000E+00
  3.906250E-01  1.523438E+01  0.000000E+00
  3.906250E-01  1.562500E+01  0.000000E+00
  3.906250E-01  1.601562E+01  0.000000E+00
  3.906250E-01  1.640625E+01  0.000000E+00
  3.906250E-01  1.679688E+01  0.000000E+00
  3.906250E-01  1.718750E+01  0.000000E+00
  3.906250E-01  1.757812E+01  0.000000E+00
  3.906250E-01  1.796875E+01  0.000000E+00
  3.906250E-01  1.835938E+01  0.000000E+00
  3.906250E-01  1.875000E+01  0.000000E+00
  3.906250E-01  1.914062E+01  0.000000E+00
  3.906250E-01  1.953125E+01  0.000000E+00
  3.906250E-01  1.992188E+01  0.000000E+00
  3.906250E-01  2.031250E+01  0.000000E+00
  3.906250E-01  2.070312E+01  0.000000E+00
  3.906250E-01  2.109375E+01  0.000000E+00
  3.906250E-01  2.148438E+01  0.000000E+00
  3.906250E-01  2.187500E+01  0.000000E+00
  3.906250E-01  2.226562E+01  0.000000E+00
  3.906250E-01  2.265625E+01  0.000000E+00
  3.906250E-01  2.304688E+01  0.000000E+00
  3.906250E-01  2.343750E+01  0.000000E+00
  3.906250E-01  2.382812E+01  0.000000E+00
  3.906250E-01  2.421875E+01  0.000000E+00
  3.906250E-01  2.460938E+01  0.000000E+00
  7.812500E-01  0.000000E+00  0.000000E+00
  7.812500E-01  3.906250E-01  0.000000E+00
  7.812500E-01  7.812500E-01  0.000000E+00
  7.812500E-01  1.171875E+00  0.000000E+00
  7.812500E-01  1.562500E+00  0.000000E+00
  7.812500E-01  1.953125E+00  0.000000E+00
  7.812500E-01  2.343750E+00  0.000000E+00
  7.812500E-01  2.734375E+00  0.000000E+00
  7.812500E-01  3.125000E+00  0.000000E+00
  7.812500E-01  3.515625E+00  0.000000E+00
  7.812500E-01  3.906250E+00  0.000000E+00
  7.812500E-01  4.296875E+00  0.000000E+00
  7.812500E-01  4.687500E+00  0.000000E+00
  7.812500E-01  5.078125E+00  0.000000E+00
  7.812500E-01  5.468750E+00  0.000000E+00
  7.812500E-01  5.859375E+00  0.000000E+00
  7.812500E-01  6.250000E+00  0.000000E+00
  7.812500E-01  6.640625E+00  0.000000E+00
  7.812500E-01  7.031250E+00  0.000000E+00
  7.812500E-01  7.421875E+00  0.000000E+00
  7.812500E-01  7.812500E+00  0.000000E+00
  7.812500E-01  8.203125E+00  0.000000E+00
  7.812500E-01  8.593750E+00  0.000000E+00
  7.812500E-01  8.984375E+00  0.000000E+00
  7.812500E-01  9.375000E+00  0.000000E+00
  7.812500E-01  9.765625E+00  0.000000E+00
  7.812500E-01  1.015625E+01  0.000000E+00
  7.812500E-01  1.054688E+01  0.000000E+00
  7.812500E-01  1.093750E+01  0.000000E+00
  7.812500E-01  1.132812E+01  0.000000E+00
  7.812500E-01  1.171875E+01  0.000000E+00
  7.812500E-01  1.210938E+01  0.000000E+00
  7.812500E-01  1.250000E+01  0.000000E+00
  7.812500E-01  1.289062E+01  0.000000E+00
  7.812500E-01  1.328125E+01  0.000000E+00
  7.812500E-01  1.367188E+01  0.000000E+00
  7.812500E-01  1.406250E+01  0.000000E+00
  7.812500E-01  1.445312E+01  0.000000E+00
  7.812500E-01  1.484375E+01  0.000000E+00
  7.812500E-01  1.523438E+01  0.000000E+00
  7.812500E-01  1.562500E+01  0.000000E+00
  7.812500E-01  1.601562E+01  0.000000E+00
  7.812500E-01  1.640625E+01  0.000000E+00
  7.812500E-01  1.679688E+01  0.000000E+00
  7.812500E-01  1.718750E+01  0.000000E+00
  7.812500E-01  1.757812E+01  0.000000E+00
  7.812500E-01  1.796875E+01  0.000000E+00
  7.812500E-01  1.835938E+01  0.000000E+00
  7.812500E-01  1.875000E+01  0.000000E+00
  7.812500E-01  1.914062E+01  0.000000E+00
  7.812500E-01  1.953125E+01  0.000000E+00
  7.812500E-01  1.992188E+01  0.000000E+00
  7.812500E-01  2.031250E+01  0.000000E+00
  7.812500E-01  2.070312E+01  0.000000E+00
  7.812500E-01  2.109375E+01  0.000000E+00
  7.812500E-01  2.148438E+01  0.000000E+00
  7.812500E-01  2.187500E+01  0.000000E+00
  7.812500E-01  2.226562E+01  0.000000E+00
  7.812500E-01  2.265625E+01  0.000000E+00
  7.812500E-01  2.304688E+01  0.000000E+00
  7.812500E-01  2.343750E+01  0.000000E+00
  7.812500E-01  2.382812E+01  0.000000E+00
  7.812500E-01  2.421875E+01  0.000000E+00
  7.812500E-01  2.460938E+01  0.000000E+00
  1.171875E+00  0.000000E+00  0.000000E+00
  1.171875E+00  3.906250E-01  0.000000E+00
  1.171875E+00  7.812500E-01  0.000000E+00
  1.171875E+00  1.171875E+00  0.000000E+00
  1.171875E+00  1.562500E+00  0.000000E+00
  1.171875E+00  1.953125E+00  0.000000E+00
  1.171875E+00  2.343750E+00  0.000000E+00
  1.171875E+00  2.734375E+00  0.000000E+00
  1.171875E+00  3.125000E+00  0.000000E+00
  1.171875E+00  3.515625E+00  0.000000E+00
  1.171875E+00  3.906250E+00  0.000000E+00
  1.171875E+00  4.296875E+00  0.000000E+00
  1.171875E+00  4.687500E+00  0.000000E+00
  1.171875E+00  5.078125E+00  0.000000E+00
  1.171875E+00  5.468750E+00  0.000000E+00
  1.171875E+00  5.859375E+00  0.000000E+00
  1.171875E+00  6.250000E+00  0.000000E+00
  1.171875E+00  6.640625E+00  0.000000E+00
  1.171875E+00  7.031250E+00  0.000000E+00
  1.171875E+00  7.421875E+00  0.000000E+00
  1.171875E+00  7.812500E+00  0.000000E+00
  1.171875E+00  8.203125E+00  0.000000E+00
  1.171875E+00  8.593750E+00  0.000000E+00
  1.171875E+00  8.984375E+00  0.000000E+00
  1.171875E+00  9.375000E+00  0.000000E+00
  1.171875E+00  9.765625E+00  0.000000E+00
  1.171875E+00  1.015625E+01  0.000000E+00
  1.171875E+00  1.054688E+01  0.000000E+00
  1.171875E+00  1.093750E+01  0.000000E+00
  1.171875E+00  1.132812E+01  0.000000E+00
  1.171875E+00  1.171875E+01  0.000000E+00
  1.171875E+00  1.210938E+01  0.000000E+00
  1.171875E+00  1.250000E+01  0.000000E+00
  1.171875E+00  1.289062E+01  0.000000E+00
  1.171875E+00  1.328125E+01  0.000000E+00
  1.171875E+00  1.367188E+01  0.000000E+00
  1.171875E+00  1.406250E+01  0.000000E+00
  1.171875E+00  1.445312E+01  0.000000E+00
[...]
POINT_DATA   4096
SCALARS CON  float  1
LOOKUP_TABLE default
  3.246217E-01
  3.244688E-01
  3.284003E-01
  3.263209E-01
  3.277622E-01
  3.240515E-01
  3.254617E-01
  3.230206E-01
  3.258335E-01
  3.238978E-01
  3.260875E-01
  3.229922E-01
  3.244443E-01
  3.216709E-01
  3.243776E-01
  3.231313E-01
  3.268180E-01
  3.254369E-01
  3.279577E-01
  3.248673E-01
  3.258288E-01
  3.217981E-01
  3.224583E-01
  3.186967E-01
  3.200496E-01
  3.174565E-01
  3.203195E-01
  3.191919E-01
  3.228963E-01
  3.215231E-01
  3.241145E-01
  3.214810E-01
  3.235141E-01
  3.213039E-01
  3.242198E-01
  3.224953E-01
  3.249635E-01
  3.220117E-01
  3.231649E-01
  3.194667E-01
  3.205983E-01
  3.173997E-01
  3.191856E-01
  3.167258E-01
  3.194789E-01
  3.184247E-01
  3.229161E-01
  3.232602E-01
  3.279337E-01
  3.265134E-01
  3.279671E-01
  3.233954E-01
  3.235578E-01
  3.205070E-01
  3.242335E-01
  3.249380E-01
  3.305708E-01
  3.300527E-01
  3.319830E-01
  3.271724E-01
  3.262917E-01
  3.212649E-01
  3.223624E-01
  3.205051E-01
  3.265155E-01
  3.270834E-01
  3.301776E-01
  3.285667E-01
  3.285441E-01
  3.244586E-01
  3.238541E-01
  3.212582E-01
  3.231467E-01
  3.226621E-01
  3.253322E-01
  3.242007E-01
  3.255201E-01
  3.232986E-01
  3.244460E-01
  3.230374E-01
  3.254368E-01
  3.248825E-01
  3.271187E-01
  3.253132E-01
  3.258380E-01
  3.227286E-01
  3.228619E-01
  3.202560E-01
  3.213185E-01
  3.196995E-01
  3.216572E-01
  3.208730E-01
  3.235544E-01
  3.230988E-01
  3.254531E-01
  3.239586E-01
  3.249380E-01
  3.223090E-01
  3.228336E-01
  3.205327E-01
  3.218517E-01
  3.203114E-01
  3.219053E-01
  3.199993E-01
  3.207979E-01
  3.181604E-01
  3.187493E-01
  3.167022E-01
  3.186183E-01
  3.183787E-01
  3.221438E-01
  3.231266E-01
  3.268350E-01
  3.260734E-01
  3.269729E-01
  3.238072E-01
  3.242359E-01
  3.230643E-01
  3.268924E-01
  3.285360E-01
  3.328258E-01
  3.319858E-01
  3.321570E-01
  3.277177E-01
  3.263953E-01
  3.228369E-01
  3.238435E-01
  3.230823E-01
  3.219199E-01
  3.251453E-01
  3.284174E-01
  3.289245E-01
  3.280581E-01
  3.251804E-01
  3.232743E-01
  3.217813E-01
  3.224395E-01
  3.231499E-01
  3.246683E-01
  3.248224E-01
  3.250634E-01
  3.241573E-01
  3.241808E-01
  3.239186E-01
  3.249345E-01
  3.253278E-01
  3.262018E-01
  3.256343E-01
  3.251361E-01
  3.233440E-01
  3.221559E-01
  3.203189E-01
  3.196228E-01
  3.186660E-01
  3.190539E-01
  3.191379E-01
  3.202212E-01
  3.204387E-01
  3.211631E-01
  3.208806E-01
  3.213848E-01
  3.213175E-01
  3.222235E-01
  3.222784E-01
  3.227060E-01
  3.217511E-01
  3.210233E-01
  3.191873E-01
  3.180854E-01
  3.164429E-01
  3.160683E-01
  3.156554E-01
  3.169293E-01
  3.183842E-01
  3.213388E-01
  3.236714E-01
  3.261237E-01
  3.263988E-01
  3.259221E-01
  3.237820E-01
  3.227727E-01
  3.224661E-01
  3.248325E-01
  3.276700E-01
  3.310666E-01
  3.318490E-01
  3.308477E-01
  3.269540E-01
  3.231310E-01
  3.193392E-01
  3.182497E-01
  3.187211E-01
  3.233065E-01
  3.270638E-01
  3.283889E-01
  3.294627E-01
  3.266408E-01
  3.241300E-01
  3.201270E-01
  3.192262E-01
  3.186291E-01
  3.211891E-01
  3.226161E-01
  3.251460E-01
  3.248679E-01
  3.252189E-01
  3.235521E-01
  3.239676E-01
  3.235802E-01
  3.255225E-01
  3.258223E-01
  3.270953E-01
  3.257002E-01
  3.252066E-01
  3.228303E-01
  3.223449E-01
  3.206156E-01
  3.208897E-01
  3.198195E-01
  3.207392E-01
  3.204417E-01
  3.221455E-01
  3.222434E-01
  3.235924E-01
  3.225874E-01
  3.226053E-01
  3.207679E-01
  3.209001E-01
  3.199911E-01
  3.211900E-01
  3.207240E-01
  3.214123E-01
  3.198202E-01
  3.195571E-01
  3.179068E-01
  3.186357E-01
  3.186323E-01
  3.209932E-01
  3.220106E-01
  3.244676E-01
  3.245545E-01
  3.252961E-01
  3.235078E-01
  3.231526E-01
  3.218383E-01
  3.235328E-01
  3.249035E-01
  3.284062E-01
  3.294283E-01
  3.303229E-01
  3.276577E-01
  3.255867E-01
  3.219259E-01
  3.208941E-01
  3.196844E-01
  3.216790E-01
  3.192951E-01
  3.245612E-01
  3.253777E-01
  3.280142E-01
  3.246811E-01
  3.237881E-01
  3.192896E-01
  3.197687E-01
  3.181870E-01
  3.215280E-01
  3.215283E-01
  3.247891E-01
  3.234228E-01
  3.250789E-01
  3.228396E-01
  3.247572E-01
  3.236004E-01
  3.266217E-01
  3.257783E-01
  3.280010E-01
  3.254621E-01
  3.257961E-01
  3.219052E-01
  3.217528E-01
  3.182731E-01
  3.191019E-01
  3.168885E-01
  3.189463E-01
  3.177007E-01
  3.203272E-01
  3.192129E-01
  3.216831E-01
  3.203142E-01
  3.226446E-01
  3.212780E-01
  3.235994E-01
  3.219636E-01
  3.236228E-01
  3.210188E-01
  3.217120E-01
  3.185654E-01
  3.194430E-01
  3.173194E-01
  3.197704E-01
  3.192709E-01
  3.228634E-01
  3.226158E-01
  3.255503E-01
  3.238930E-01
  3.250823E-01
  3.218680E-01
  3.222513E-01
  3.194729E-01
  3.215224E-01
  3.210990E-01
  3.251501E-01
  3.252297E-01
  3.278231E-01
  3.249015E-01
  3.242574E-01
  3.193046E-01
  3.186152E-01
  3.157291E-01
  3.184926E-01
  3.218008E-01
  3.259551E-01
  3.249959E-01
  3.272552E-01
  3.231878E-01
  3.226022E-01
  3.175354E-01
  3.182513E-01
  3.162125E-01
  3.202103E-01
  3.202792E-01
  3.244935E-01
  3.230270E-01
  3.251200E-01
  3.222699E-01
  3.245033E-01
  3.231274E-01
  3.271012E-01
  3.264204E-01
  3.294107E-01
  3.263682E-01
  3.268117E-01
  3.222302E-01
  3.225131E-01
  3.188687E-01
  3.204343E-01
  3.180219E-01
  3.206933E-01
  3.193821E-01
  3.230924E-01
  3.223193E-01
  3.256516E-01
  3.234779E-01
  3.250210E-01
  3.216246E-01
  3.231532E-01
  3.208368E-01
  3.236606E-01
  3.218948E-01
  3.241891E-01
  3.213229E-01
  3.229069E-01
  3.204115E-01
  3.232779E-01
  3.221657E-01
  3.256496E-01
  3.239719E-01
  3.260675E-01
  3.228287E-01
  3.237749E-01
  3.201339E-01
  3.214716E-01
  3.190154E-01
  3.220087E-01
  3.210983E-01
  3.248263E-01
  3.233654E-01
  3.255431E-01
  3.223011E-01
  3.233189E-01
  3.199367E-01
  3.216181E-01
  3.194151E-01
  3.225297E-01
  3.186800E-01
  3.228219E-01
  3.223508E-01
  3.252576E-01
  3.224034E-01
  3.230421E-01
  3.192348E-01
  3.205525E-01
  3.185848E-01
  3.218468E-01
  3.209905E-01
  3.241689E-01
  3.222829E-01
  3.243547E-01
  3.221208E-01
  3.249119E-01
  3.240570E-01
  3.280009E-01
  3.271473E-01
  3.296498E-01
  3.262775E-01
  3.261859E-01
  3.211762E-01
  3.208144E-01
  3.168716E-01
  3.183081E-01
  3.163431E-01
  3.194333E-01
  3.185311E-01
  3.220810E-01
  3.210933E-01
  3.242430E-01
  3.227185E-01
  3.254472E-01
  3.237033E-01
  3.263052E-01
  3.242399E-01
  3.261068E-01
  3.229651E-01
  3.238288E-01
  3.203386E-01
  3.218257E-01
  3.198543E-01
  3.231331E-01
  3.224267E-01
  3.259030E-01
  3.242346E-01
  3.261305E-01
  3.229351E-01
  3.238183E-01
  3.202736E-01
  3.213371E-01
  3.184597E-01
  3.205661E-01
  3.189394E-01
  3.221383E-01
  3.209833E-01
  3.238085E-01
  3.214922E-01
  3.228144E-01
  3.192516E-01
  3.200821E-01
  3.171231E-01
  3.195469E-01
  3.213443E-01
  3.234980E-01
  3.225400E-01
  3.245608E-01
  3.225330E-01
  3.230595E-01
  3.200705E-01
  3.208482E-01
  3.193236E-01
  3.219924E-01
  3.217516E-01
  3.244438E-01
  3.230429E-01
  3.242956E-01
  3.222712E-01
  3.242910E-01
  3.240801E-01
  3.278195E-01
  3.279052E-01
  3.299854E-01
  3.270132E-01
  3.261214E-01
  3.216724E-01
  3.211753E-01
  3.185143E-01
  3.201602E-01
  3.192757E-01
  3.220998E-01
  3.219280E-01
  3.251910E-01
  3.250388E-01
  3.276677E-01
  3.261430E-01
  3.271466E-01
  3.245196E-01
  3.254566E-01
  3.236309E-01
  3.254451E-01
  3.238123E-01
  3.250107E-01
  3.225723E-01
  3.235876E-01
  3.219680E-01
  3.243587E-01
  3.237707E-01
  3.261665E-01
  3.245123E-01
  3.254322E-01
  3.226545E-01
  3.231736E-01
  3.206768E-01
  3.218748E-01
  3.202670E-01
  3.223533E-01
  3.213549E-01
  3.234947E-01
  3.219475E-01
  3.233173E-01
  3.213008E-01
  3.227570E-01
  3.211607E-01
  3.229033E-01
  3.212535E-01
  3.228358E-01
  3.177892E-01
  3.199040E-01
  3.203456E-01
  3.229854E-01
  3.229228E-01
  3.244308E-01
  3.232592E-01
  3.242209E-01
  3.231666E-01
  3.245450E-01
  3.236785E-01
  3.247168E-01
  3.231497E-01
  3.237171E-01
  3.225018E-01
  3.243449E-01
  3.247996E-01
  3.277765E-01
  3.279590E-01
  3.290715E-01
  3.264022E-01
  3.248816E-01
  3.209254E-01
  3.198450E-01
  3.177692E-01
  3.191507E-01
  3.192330E-01
  3.218407E-01
  3.220482E-01
  3.240395E-01
  3.234320E-01
  3.249021E-01
  3.242396E-01
  3.260131E-01
  3.256793E-01
  3.273981E-01
  3.263142E-01
  3.266268E-01
  3.239478E-01
  3.231763E-01
  3.205034E-01
  3.208695E-01
  3.200168E-01
  3.221056E-01
  3.222127E-01
  3.242797E-01
  3.236215E-01
  3.247247E-01
  3.233197E-01
  3.239885E-01
  3.223407E-01
  3.228555E-01
  3.212337E-01
  3.220877E-01
  3.211185E-01
  3.227011E-01
  3.221875E-01
  3.237160E-01
  3.225985E-01
  3.231462E-01
  3.209660E-01
  3.207128E-01
  3.183540E-01
  3.187418E-01
  3.199833E-01
  3.206978E-01
  3.208211E-01
  3.228385E-01
  3.233120E-01
  3.246118E-01
  3.238549E-01
  3.242686E-01
  3.234663E-01
  3.244714E-01
  3.241971E-01
  3.250384E-01
  3.238713E-01
  3.237403E-01
  3.224132E-01
  3.233774E-01
  3.240152E-01
  3.267014E-01
  3.275855E-01
  3.285721E-01
  3.264856E-01
  3.247718E-01
  3.216602E-01
  3.209536E-01
  3.202136E-01
  3.220110E-01
  3.228947E-01
  3.250783E-01
  3.253919E-01
  3.266794E-01
  3.262030E-01
  3.268743E-01
  3.258245E-01
  3.259686E-01
  3.246497E-01
  3.249375E-01
  3.240136E-01
  3.245233E-01
  3.233411E-01
  3.232436E-01
  3.216342E-01
  3.217576E-01
  3.210644E-01
  3.223281E-01
  3.223813E-01
  3.236910E-01
  3.232540E-01
  3.239897E-01
  3.232015E-01
  3.238074E-01
  3.229735E-01
  3.236093E-01
  3.230233E-01
  3.241563E-01
  3.240540E-01
  3.252473E-01
  3.246036E-01
  3.249539E-01
  3.236945E-01
  3.239366E-01
  3.228568E-01
  3.230875E-01
  3.216102E-01
  3.213764E-01
  3.164971E-01
  3.179566E-01
  3.189881E-01
  3.218381E-01
  3.232106E-01
  3.253753E-01
  3.254196E-01
  3.262338E-01
  3.253527E-01
  3.257189E-01
  3.245881E-01
  3.246076E-01
  3.230547E-01
  3.229402E-01
  3.219671E-01
  3.231946E-01
  3.238559E-01
  3.261979E-01
  3.267068E-01
  3.274574E-01
  3.254886E-01
  3.239819E-01
  3.210395E-01
  3.202547E-01
  3.194095E-01
  3.211566E-01
  3.221854E-01
  3.243860E-01
  3.243698E-01
  3.247578E-01
  3.232207E-01
  3.231619E-01
  3.223609E-01
  3.236686E-01
  3.240210E-01
  3.255448E-01
  3.249119E-01
  3.246332E-01
  3.222263E-01
  3.210459E-01
  3.190074E-01
  3.191910E-01
  3.188481E-01
  3.203747E-01
  3.206847E-01
  3.222765E-01
  3.223780E-01
  3.237408E-01
  3.235727E-01
  3.244630E-01
  3.235683E-01
  3.237289E-01
  3.225312E-01
  3.230869E-01
  3.228592E-01
  3.244612E-01
  3.247619E-01
  3.260293E-01
  3.251578E-01
  3.247849E-01
  3.223184E-01
  3.208652E-01
  3.181900E-01
  3.175138E-01
  3.194426E-01
  3.200785E-01
  3.201139E-01
  3.222486E-01
  3.229303E-01
  3.245770E-01
  3.239933E-01
  3.244126E-01
  3.232879E-01
  3.238976E-01
  3.231838E-01
  3.238178E-01
  3.225779E-01
  3.225700E-01
  3.212946E-01
  3.222717E-01
  3.227400E-01
  3.253136E-01
  3.261617E-01
  3.274220E-01
  3.257497E-01
  3.245881E-01
  3.218932E-01
  3.215653E-01
  3.210489E-01
  3.230830E-01
  3.240115E-01
  3.260719E-01
  3.258417E-01
  3.263480E-01
  3.249072E-01
  3.248373E-01
  3.233203E-01
  3.234029E-01
  3.221451E-01
  3.225632E-01
  3.216381E-01
  3.222198E-01
  3.211896E-01
  3.215121E-01
  3.203689E-01
  3.209523E-01
  3.204179E-01
  3.216630E-01
  3.215172E-01
  3.227790E-01
  3.224128E-01
  3.234175E-01
  3.227965E-01
  3.234788E-01
  3.224967E-01
  3.230351E-01
  3.224310E-01
  3.238644E-01
  3.242257E-01
  3.260657E-01
  3.259196E-01
  3.265899E-01
  3.252288E-01
  3.251403E-01
  3.235036E-01
  3.232805E-01
  3.214188E-01
  3.210107E-01
  3.172453E-01
  3.187985E-01
  3.192891E-01
  3.217825E-01
  3.225091E-01
  3.245031E-01
  3.241608E-01
  3.249287E-01
  3.236083E-01
  3.238307E-01
  3.223144E-01
  3.224920E-01
  3.210341E-01
  3.215183E-01
  3.208166E-01
  3.224822E-01
  3.230449E-01
  3.255210E-01
  3.259249E-01
  3.271205E-01
  3.254221E-01
  3.244640E-01
  3.214669E-01
  3.206255E-01
  3.191563E-01
  3.205574E-01
  3.210118E-01
  3.231156E-01
  3.227698E-01
  3.231743E-01
  3.213167E-01
  3.212913E-01
  3.202624E-01
  3.217179E-01
  3.218861E-01
  3.235239E-01
  3.227146E-01
  3.227504E-01
  3.205789E-01
  3.201646E-01
  3.186027E-01
  3.194398E-01
  3.191532E-01
  3.208127E-01
  3.207663E-01
  3.222749E-01
  3.219323E-01
  3.231234E-01
  3.223809E-01
  3.230220E-01
  3.216785E-01
  3.219585E-01
  3.208078E-01
  3.219032E-01
  3.219233E-01
  3.240326E-01
  3.243777E-01
  3.258730E-01
  3.247731E-01
  3.244682E-01
  3.218313E-01
  3.207360E-01
  3.182760E-01
  3.181834E-01
  3.216862E-01
  3.222211E-01
  3.216099E-01
  3.226713E-01
  3.223984E-01
  3.232792E-01
  3.223506E-01
  3.225179E-01
  3.212640E-01
  3.216133E-01
  3.207936E-01
  3.214417E-01
  3.206347E-01
  3.212226E-01
  3.206922E-01
  3.221403E-01
  3.228761E-01
  3.254082E-01
  3.263039E-01
  3.276877E-01
  3.263678E-01
  3.253596E-01
  3.225277E-01
  3.214861E-01
  3.199918E-01
  3.208962E-01
  3.210570E-01
  3.227193E-01
  3.226749E-01
  3.235989E-01
  3.228061E-01
  3.232523E-01
  3.222070E-01
  3.224623E-01
  3.212577E-01
  3.214977E-01
  3.205185E-01
  3.211558E-01
  3.205584E-01
  3.214203E-01
  3.209232E-01
  3.218961E-01
  3.215852E-01
  3.227153E-01
  3.223342E-01
  3.230819E-01
  3.221110E-01
  3.222912E-01
  3.209700E-01
  3.211059E-01
  3.200960E-01
  3.209163E-01
  3.208893E-01
  3.227004E-01
  3.232056E-01
  3.247293E-01
  3.241436E-01
  3.242903E-01
  3.227350E-01
  3.227352E-01
  3.217441E-01
  3.224893E-01
  3.219128E-01
  3.225786E-01
  3.208094E-01
  3.218631E-01
  3.218239E-01
  3.225346E-01
  3.223867E-01
  3.231001E-01
  3.228032E-01
  3.230813E-01
  3.221583E-01
  3.218564E-01
  3.206299E-01
  3.204287E-01
  3.197473E-01
  3.204762E-01
  3.209421E-01
  3.227549E-01
  3.239282E-01
  3.258661E-01
  3.264948E-01
  3.272488E-01
  3.261531E-01
  3.249327E-01
  3.221549E-01
  3.201733E-01
  3.179582E-01
  3.176682E-01
  3.175396E-01
  3.187973E-01
  3.191093E-01
  3.198627E-01
  3.194635E-01
  3.200616E-01
  3.202746E-01
  3.217927E-01
  3.224733E-01
  3.235145E-01
  3.228795E-01
  3.224159E-01
  3.208417E-01
  3.203998E-01
  3.196856E-01
  3.204388E-01
  3.207009E-01
  3.218545E-01
  3.218734E-01
  3.223354E-01
  3.215295E-01
  3.213401E-01
  3.202572E-01
  3.202196E-01
  3.196504E-01
  3.203140E-01
  3.204085E-01
  3.214887E-01
  3.216333E-01
  3.224100E-01
  3.219855E-01
  3.220517E-01
  3.209208E-01
  3.204962E-01
  3.193463E-01
  3.194923E-01
  3.193347E-01
  3.204526E-01
  3.260976E-01
  3.256636E-01
  3.246770E-01
  3.234641E-01
  3.225603E-01
  3.218319E-01
  3.213594E-01
  3.208440E-01
  3.204642E-01
  3.200798E-01
  3.199319E-01
  3.198537E-01
  3.200665E-01
  3.204415E-01
  3.212440E-01
  3.223070E-01
  3.237377E-01
  3.251195E-01
  3.263092E-01
  3.267470E-01
  3.263651E-01
  3.249606E-01
  3.230336E-01
  3.209252E-01
  3.193654E-01
  3.184795E-01
  3.184667E-01
  3.189211E-01
  3.197718E-01
  3.206565E-01
  3.216774E-01
  3.225322E-01
  3.232135E-01
  3.233193E-01
  3.229895E-01
  3.222250E-01
  3.215705E-01
  3.211255E-01
  3.211691E-01
  3.214147E-01
  3.219190E-01
  3.224060E-01
  3.229936E-01
  3.233289E-01
  3.233542E-01
  3.226794E-01
  3.215351E-01
  3.200565E-01
  3.189260E-01
  3.183931E-01
  3.188590E-01
  3.200312E-01
  3.216987E-01
  3.230760E-01
  3.237830E-01
  3.233256E-01
  3.220412E-01
  3.203030E-01
  3.190564E-01
  3.187267E-01
  3.197186E-01
  3.215590E-01
  3.237702E-01
  3.253904E-01
  3.251246E-01
  3.248179E-01
  3.246297E-01
  3.229621E-01
  3.225224E-01
  3.214945E-01
  3.218985E-01
  3.213084E-01
  3.215369E-01
  3.203987E-01
  3.201758E-01
  3.191044E-01
  3.196096E-01
  3.197337E-01
  3.214433E-01
  3.222797E-01
  3.239721E-01
  3.242036E-01
  3.251086E-01
  3.246360E-01
  3.248401E-01
  3.234020E-01
  3.223494E-01
  3.198100E-01
  3.184453E-01
  3.167133E-01
  3.169379E-01
  3.168293E-01
  3.180644E-01
  3.182652E-01
  3.195664E-01
  3.200963E-01
  3.220563E-01
  3.230733E-01
  3.247266E-01
  3.244117E-01
  3.241499E-01
  3.221851E-01
  3.212515E-01
  3.197999E-01
  3.201986E-01
  3.202549E-01
  3.217066E-01
  3.219523E-01
  3.226755E-01
  3.215741E-01
  3.209177E-01
  3.190426E-01
  3.185973E-01
  3.178952E-01
  3.191172E-01
  3.198874E-01
  3.217648E-01
  3.220947E-01
  3.226993E-01
  3.215330E-01
  3.210319E-01
  3.194418E-01
  3.191419E-01
  3.182589E-01
  3.191075E-01
  3.197110E-01
  3.220009E-01
  3.233295E-01
  3.292564E-01
  3.272368E-01
  3.264857E-01
  3.232046E-01
  3.224722E-01
  3.200574E-01
  3.203718E-01
  3.187864E-01
  3.196112E-01
  3.183440E-01
  3.194533E-01
  3.185409E-01
  3.200806E-01
  3.195970E-01
  3.214420E-01
  3.210214E-01
  3.227049E-01
  3.220123E-01
  3.234721E-01
  3.226227E-01
  3.238507E-01
  3.225147E-01
  3.230089E-01
  3.209614E-01
  3.211229E-01
  3.193286E-01
  3.201971E-01
  3.192925E-01
  3.210106E-01
  3.208535E-01
  3.232048E-01
  3.233797E-01
  3.254681E-01
  3.245797E-01
  3.250632E-01
  3.226741E-01
  3.224362E-01
  3.203639E-01
  3.211477E-01
  3.202756E-01
  3.220317E-01
  3.217775E-01
  3.237591E-01
  3.231688E-01
  3.241077E-01
  3.218851E-01
  3.211841E-01
  3.181320E-01
  3.179109E-01
  3.166135E-01
  3.187692E-01
  3.195857E-01
  3.228253E-01
  3.232743E-01
  3.248985E-01
  3.231273E-01
  3.228247E-01
  3.201782E-01
  3.203631E-01
  3.194280E-01
  3.219569E-01
  3.231716E-01
  3.268311E-01
  3.275739E-01
  3.261867E-01
  3.244630E-01
  3.250453E-01
  3.220445E-01
  3.222868E-01
  3.198604E-01
  3.210035E-01
  3.192312E-01
  3.205040E-01
  3.185061E-01
  3.196061E-01
  3.178643E-01
  3.197158E-01
  3.189289E-01
  3.214361E-01
  3.205718E-01
  3.222976E-01
  3.204379E-01
  3.216290E-01
  3.200142E-01
  3.218979E-01
  3.207210E-01
  3.223162E-01
  3.202781E-01
  3.211084E-01
  3.189932E-01
  3.204345E-01
  3.191383E-01
  3.211025E-01
  3.199637E-01
  3.220834E-01
  3.214149E-01
  3.242084E-01
  3.238237E-01
  3.259906E-01
  3.240214E-01
  3.242558E-01
  3.209049E-01
  3.209009E-01
  3.185569E-01
  3.203108E-01
  3.197552E-01
  3.226241E-01
  3.220216E-01
  3.236939E-01
  3.212143E-01
  3.211731E-01
  3.179639E-01
  3.184773E-01
  3.168942E-01
  3.193730E-01
  3.192891E-01
  3.222823E-01
  3.216680E-01
  3.236153E-01
  3.220724E-01
  3.235942E-01
  3.220178E-01
  3.235394E-01
  3.218511E-01
  3.233767E-01
  3.221353E-01
  3.245078E-01
  3.239456E-01
  3.280467E-01
  3.252889E-01
  3.256805E-01
  3.221356E-01
  3.223605E-01
  3.191828E-01
  3.200027E-01
  3.174805E-01
  3.189266E-01
  3.170347E-01
  3.191181E-01
  3.178252E-01
  3.203542E-01
  3.191909E-01
  3.214480E-01
  3.196431E-01
  3.211681E-01
  3.189194E-01
  3.205581E-01
  3.189674E-01
  3.214599E-01
  3.204721E-01
  3.230716E-01
  3.217409E-01
  3.238679E-01
  3.221947E-01
  3.241794E-01
  3.224955E-01
  3.245837E-01
  3.231759E-01
  3.256896E-01
  3.245524E-01
  3.267492E-01
  3.244709E-01
  3.250484E-01
  3.214517E-01
  3.216917E-01
  3.189244E-01
  3.206704E-01
  3.194829E-01
  3.224486E-01
  3.219654E-01
  3.250653E-01
  3.239369E-01
  3.255652E-01
  3.224243E-01
  3.222552E-01
  3.183922E-01
  3.188891E-01
  3.168414E-01
  3.195207E-01
  3.192498E-01
  3.228486E-01
  3.225461E-01
  3.254924E-01
  3.242819E-01
  3.264133E-01
  3.246220E-01
  3.264604E-01
  3.246686E-01
  3.267896E-01
  3.254458E-01
  3.278918E-01
  3.263940E-01
  3.234305E-01
  3.221078E-01
  3.236200E-01
  3.215825E-01
  3.225015E-01
  3.203458E-01
  3.214961E-01
  3.195999E-01
  3.207887E-01
  3.187705E-01
  3.199404E-01
  3.182688E-01
  3.201479E-01
  3.192336E-01
  3.214613E-01
  3.201687E-01
  3.214482E-01
  3.192178E-01
  3.202178E-01
  3.186150E-01
  3.207439E-01
  3.200402E-01
  3.223457E-01
  3.211627E-01
  3.228909E-01
  3.214889E-01
  3.233507E-01
  3.220400E-01
  3.236542E-01
  3.218866E-01
  3.232838E-01
  3.218346E-01
  3.238809E-01
  3.228243E-01
  3.245276E-01
  3.223876E-01
  3.227783E-01
  3.198263E-01
  3.203657E-01
  3.185903E-01
  3.209031E-01
  3.208110E-01
  3.240327E-01
  3.235931E-01
  3.253200E-01
  3.228467E-01
  3.229183E-01
  3.198840E-01
  3.205486E-01