# vtk DataFile Version 2.0
title
ASCII
DATASET STRUCTURED_GRID
DIMENSIONS   64   64    1
POINTS   4096  float
  0.000000E+00  0.000000E+00  0.000000E+00
  0.000000E+00  3.906250E-01  0.000000E+00
  0.000000E+00  7.812500E-01  0.000000E+00
  0.000000E+00  1.171875E+00  0.000000E+00
  0.000000E+00  1.562500E+00  0.000000E+00
  0.000000E+00  1.953125E+00  0.000000E+00
  0.000000E+00  2.343750E+00  0.000000E+00
  0.000000E+00  2.734375E+00  0.000000E+00
  0.000000E+00  3.125000E+00  0.000000E+00
  0.000000E+00  3.515625E+00  0.000000E+00
  0.000000E+00  3.906250E+00  0.000000E+00
  0.000000E+00  4.296875E+00  0.000000E+00
  0.000000E+00  4.687500E+00  0.000000E+00
  0.000000E+00  5.078125E+00  0.000000E+00
  0.000000E+00  5.468750E+00  0.000000E+00
  0.000000E+00  5.859375E+00  0.000000E+00
  0.000000E+00  6.250000E+00  0.000000E+00
  0.000000E+00  6.640625E+00  0.000000E+00
  0.000000E+00  7.031250E+00  0.000000E+00
  0.000000E+00  7.421875E+00  0.000000E+00
  0.000000E+00  7.812500E+00  0.000000E+00
  0.000000E+00  8.203125E+00  0.000000E+00
  0.000000E+00  8.593750E+00  0.000000E+00
  0.000000E+00  8.984375E+00  0.000000E+00
  0.000000E+00  9.375000E+00  0.000000E+00
  0.000000E+00  9.765625E+00  0.000000E+00
  0.000000E+00  1.015625E+01  0.000000E+00
  0.000000E+00  1.054688E+01  0.000000E+00
  0.000000E+00  1.093750E+01  0.000000E+00
  0.000000E+00  1.132812E+01  0.000000E+00
  0.000000E+00  1.171875E+01  0.000000E+00
  0.000000E+00  1.210938E+01  0.000000E+00
  0.000000E+00  1.250000E+01  0.000000E+00
  0.000000E+00  1.289062E+01  0.000000E+00
  0.000000E+00  1.328125E+01  0.000000E+00
  0.000000E+00  1.367188E+01  0.000000E+00
  0.000000E+00  1.406250E+01  0.000000E+00
  0.000000E+00  1.445312E+01  0.000000E+00
  0.000000E+00  1.484375E+01  0.000000E+00
  0.000000E+00  1.523438E+01  0.000000E+00
  0.000000E+00  1.562500E+01  0.000000E+00
  0.000000E+00  1.601562E+01  0.000000E+00
  0.000000E+00  1.640625E+01  0.000000E+00
  0.000000E+00  1.679688E+01  0.000000E+00
  0.000000E+00  1.718750E+01  0.000000E+00
  0.000000E+00  1.757812E+01  0.000000E+00
  0.000000E+00  1.796875E+01  0.000000E+00
  0.000000E+00  1.835938E+01  0.000000E+00
  0.000000E+00  1.875000E+01  0.000000E+00
  0.000000E+00  1.914062E+01  0.000000E+00
  0.000000E+00  1.953125E+01  0.000000E+00
  0.000000E+00  1.992188E+01  0.000000E+00
  0.000000E+00  2.031250E+01  0.000000E+00
  0.000000E+00  2.070312E+01  0.000000E+00
  0.000000E+00  2.109375E+01  0.000000E+00
  0.000000E+00  2.148438E+01  0.000000E+00
  0.000000E+00  2.187500E+01  0.000000E+00
  0.000000E+00  2.226562E+01  0.000000E+00
  0.000000E+00  2.265625E+01  0.000000E+00
  0.000000E+00  2.304688E+01  0.000000E+00
  0.000000E+00  2.343750E+01  0.000000E+00
  0.000000E+00  2.382812E+01  0.000000E+00
  0.000000E+00  2.421875E+01  0.000000E+00
  0.000000E+00  2.460938E+01  0.000000E+00
  3.906250E-01  0.000000E+00  0.000000E+00
  3.906250E-01  3.906250E-01  0.000000E+00
  3.906250E-01  7.812500E-01  0.000000E+00
  3.906250E-01  1.171875E+00  0.000000E+00
  3.906250E-01  1.562500E+00  0.000000E+00
  3.906250E-01  1.953125E+00  0.000000E+00
  3.906250E-01  2.343750E+00  0.000000E+00
  3.906250E-01  2.734375E+00  0.000000E+00
  3.906250E-01  3.125000E+00  0.000000E+00
  3.906250E-01  3.515625E+00  0.000000E+00
  3.906250E-01  3.906250E+00  0.000000E+00
  3.906250E-01  4.296875E+00  0.000000E+00
  3.906250E-01  4.687500E+00  0.000000E+00
  3.906250E-01  5.078125E+00  0.000000E+00
  3.906250E-01  5.468750E+00  0.000000E+00
  3.906250E-01  5.859375E+00  0.000000E+00
  3.906250E-01  6.250000E+00  0.000000E+00
  3.906250E-01  6.640625E+00  0.000000E+00
  3.906250E-01  7.031250E+00  0.000000E+00
  3.906250E-01  7.421875E+00  0.000000E+00
  3.906250E-01  7.812500E+00  0.000000E+00
  3.906250E-01  8.203125E+00  0.000000E+00
  3.906250E-01  8.593750E+00  0.000000E+00
  3.906250E-01  8.984375E+00  0.000000E+00
  3.906250E-01  9.375000E+00  0.000000E+00
  3.906250E-01  9.765625E+00  0.000000E+00
  3.906250E-01  1.015625E+01  0.000000E+00
  3.906250E-01  1.054688E+01  0.000000E+00
  3.906250E-01  1.093750E+01  0.000000E+00
  3.906250E-01  1.132812E+01  0.000000E+00
  3.906250E-01  1.171875E+01  0.000000E+00
  3.906250E-01  1.210938E+01  0.000000E+00
  3.906250E-01  1.250000E+01  0.000000E+00
  3.906250E-01  1.289062E+01  0.000000E+00
  3.906250E-01  1.328125E+01  0.000000E+00
  3.906250E-01  1.367188E+01  0.000000E+00
  3.906250E-01  1.406250E+01  0.000000E+00
  3.906250E-01  1.445312E+01  0.000000E+00
  3.906250E-01  1.484375E+01  0.000000E+00
  3.906250E-01  1.523438E+01  0.000000E+00
  3.906250E-01  1.562500E+01  0.000000E+00
  3.906250E-01  1.601562E+01  0.000000E+00
  3.906250E-01  1.640625E+01  0.000000E+00
  3.906250E-01  1.679688E+01  0.000000E+00
  3.906250E-01  1.718750E+01  0.000000E+00
  3.906250E-01  1.757812E+01  0.000000E+00
  3.906250E-01  1.796875E+01  0.000000E+00
  3.906250E-01  1.835938E+01  0.000000E+00
  3.906250E-01  1.875000E+01  0.000000E+00
  3.906250E-01  1.914062E+01  0.000000E+00
  3.906250E-01  1.953125E+01  0.000000E+00
  3.906250E-01  1.992188E+01  0.000000E+00
  3.906250E-01  2.031250E+01  0.000000E+00
  3.906250E-01  2.070312E+01  0.000000E+00
  3.906250E-01  2.109375E+01  0.000000E+00
  3.906250E-01  2.148438E+01  0.000000E+00
  3.906250E-01  2.187500E+01  0.000000E+00
  3.906250E-01  2.226562E+01  0.000000E+00
  3.906250E-01  2.265625E+01  0.000000E+00
  3.906250E-01  2.304688E+01  0.000000E+00
  3.906250E-01  2.343750E+01  0.000000E+00
  3.906250E-01  2.382812E+01  0.000000E+00
  3.906250E-01  2.421875E+01  0.000000E+00
  3.906250E-01  2.460938E+01  0.000000E+00
  7.812500E-01  0.000000E+00  0.000000E+00
  7.812500E-01  3.906250E-01  0.000000E+00
  7.812500E-01  7.812500E-01  0.000000E+00
  7.812500E-01  1.171875E+00  0.000000E+00
  7.812500E-01  1.562500E+00  0.000000E+00
  7.812500E-01  1.953125E+00  0.000000E+00
  7.812500E-01  2.343750E+00  0.000000E+00
  7.812500E-01  2.734375E+00  0.000000E+00
  7.812500E-01  3.125000E+00  0.000000E+00
  7.812500E-01  3.515625E+00  0.000000E+00
  7.812500E-01  3.906250E+00  0.000000E+00
  7.812500E-01  4.296875E+00  0.000000E+00
  7.812500E-01  4.687500E+00  0.000000E+00
  7.812500E-01  5.078125E+00  0.000000E+00
  7.812500E-01  5.468750E+00  0.000000E+00
  7.812500E-01  5.859375E+00  0.000000E+00
  7.812500E-01  6.250000E+00  0.000000E+00
  7.812500E-01  6.640625E+00  0.000000E+00
  7.812500E-01  7.031250E+00  0.000000E+00
  7.812500E-01  7.421875E+00  0.000000E+00
  7.812500E-01  7.812500E+00  0.000000E+00
  7.812500E-01  8.203125E+00  0.000000E+00
  7.812500E-01  8.593750E+00  0.000000E+00
  7.812500E-01  8.984375E+00  0.000000E+00
  7.812500E-01  9.375000E+00  0.000000E+00
  7.812500E-01  9.765625E+00  0.000000E+00
  7.812500E-01  1.015625E+01  0.000000E+00
  7.812500E-01  1.054688E+01  0.000000E+00
  7.812500E-01  1.093750E+01  0.000000E+00
  7.812500E-01  1.132812E+01  0.000000E+00
  7.812500E-01  1.171875E+01  0.000000E+00
  7.812500E-01  1.210938E+01  0.000000E+00
  7.812500E-01  1.250000E+01  0.000000E+00
  7.812500E-01  1.289062E+01  0.000000E+00
  7.812500E-01  1.328125E+01  0.000000E+00
  7.812500E-01  1.367188E+01  0.000000E+00
  7.812500E-01  1.406250E+01  0.000000E+00
  7.812500E-01  1.445312E+01  0.000000E+00
  7.812500E-01  1.484375E+01  0.000000E+00
  7.812500E-01  1.523438E+01  0.000000E+00
  7.812500E-01  1.562500E+01  0.000000E+00
  7.812500E-01  1.601562E+01  0.000000E+00
  7.812500E-01  1.640625E+01  0.000000E+00
  7.812500E-01  1.679688E+01  0.000000E+00
  7.812500E-01  1.718750E+01  0.000000E+00
  7.812500E-01  1.757812E+01  0.000000E+00
  7.812500E-01  1.796875E+01  0.000000E+00
  7.812500E-01  1.835938E+01  0.000000E+00
  7.812500E-01  1.875000E+01  0.000000E+00
  7.812500E-01  1.914062E+01  0.000000E+00
  7.812500E-01  1.953125E+01  0.000000E+00
  7.812500E-01  1.992188E+01  0.000000E+00
  7.812500E-01  2.031250E+01  0.000000E+00
  7.812500E-01  2.070312E+01  0.000000E+00
  7.812500E-01  2.109375E+01  0.000000E+00
  7.812500E-01  2.148438E+01  0.000000E+00
  7.812500E-01  2.187500E+01  0.000000E+00
  7.812500E-01  2.226562E+01  0.000000E+00
  7.812500E-01  2.265625E+01  0.000000E+00
  7.812500E-01  2.304688E+01  0.000000E+00
  7.812500E-01  2.343750E+01  0.000000E+00
  7.812500E-01  2.382812E+01  0.000000E+00
  7.812500E-01  2.421875E+01  0.000000E+00
  7.812500E-01  2.460938E+01  0.000000E+00
  1.171875E+00  0.000000E+00  0.000000E+00
  1.171875E+00  3.906250E-01  0.000000E+00
  1.171875E+00  7.812500E-01  0.000000E+00
  1.171875E+00  1.171875E+00  0.000000E+00
  1.171875E+00  1.562500E+00  0.000000E+00
  1.171875E+00  1.953125E+00  0.000000E+00
  1.171875E+00  2.343750E+00  0.000000E+00
  1.171875E+00  2.734375E+00  0.000000E+00
  1.171875E+00  3.125000E+00  0.000000E+00
  1.171875E+00  3.515625E+00  0.000000E+00
  1.171875E+00  3.906250E+00  0.000000E+00
  1.171875E+00  4.296875E+00  0.000000E+00
  1.171875E+00  4.687500E+00  0.000000E+00
  1.171875E+00  5.078125E+00  0.000000E+00
  1.171875E+00  5.468750E+00  0.000000E+00
  1.171875E+00  5.859375E+00  0.000000E+00
  1.171875E+00  6.250000E+00  0.000000E+00
  1.171875E+00  6.640625E+00  0.000000E+00
  1.171875E+00  7.031250E+00  0.000000E+00
  1.171875E+00  7.421875E+00  0.000000E+00
  1.171875E+00  7.812500E+00  0.000000E+00
  1.171875E+00  8.203125E+00  0.000000E+00
  1.171875E+00  8.593750E+00  0.000000E+00
  1.171875E+00  8.984375E+00  0.000000E+00
  1.171875E+00  9.375000E+00  0.000000E+00
  1.171875E+00  9.765625E+00  0.000000E+00
  1.171875E+00  1.015625E+01  0.000000E+00
  1.171875E+00  1.054688E+01  0.000000E+00
  1.171875E+00  1.093750E+01  0.000000E+00
  1.171875E+00  1.132812E+01  0.000000E+00
  1.171875E+00  1.171875E+01  0.000000E+00
  1.171875E+00  1.210938E+01  0.000000E+00
  1.171875E+00  1.250000E+01  0.000000E+00
  1.171875E+00  1.289062E+01  0.000000E+00
  1.171875E+00  1.328125E+01  0.000000E+00
  1.171875E+00  1.367188E+01  0.000000E+00
  1.171875E+00  1.406250E+01  0.000000E+00
  1.171875E+00  1.445312E+01  0.000000E+00
[...]
POINT_DATA   4096
SCALARS CON  float  1
LOOKUP_TABLE default
  3.925660E-01
  3.921231E-01
  3.969724E-01
  3.946056E-01
  3.954823E-01
  3.902462E-01
  3.918417E-01
  3.901567E-01
  3.946864E-01
  3.927180E-01
  3.943720E-01
  3.896347E-01
  3.906681E-01
  3.874420E-01
  3.907900E-01
  3.896672E-01
  3.943486E-01
  3.931653E-01
  3.960713E-01
  3.919292E-01
  3.923001E-01
  3.873962E-01
  3.885294E-01
  3.847251E-01
  3.863892E-01
  3.830366E-01
  3.861937E-01
  3.856861E-01
  3.915919E-01
  3.913628E-01
  3.943145E-01
  3.898592E-01
  3.907853E-01
  3.880428E-01
  3.923232E-01
  3.910902E-01
  3.935503E-01
  3.888937E-01
  3.892714E-01
  3.850926E-01
  3.872366E-01
  3.843487E-01
  3.866588E-01
  3.834273E-01
  3.857890E-01
  3.836912E-01
  3.885188E-01
  3.896281E-01
  3.965703E-01
  3.961604E-01
  3.975316E-01
  3.903908E-01
  3.884921E-01
  3.841506E-01
  3.893815E-01
  3.923106E-01
  4.007359E-01
  4.007491E-01
  4.023720E-01
  3.960933E-01
  3.951107E-01
  3.898982E-01
  3.914069E-01
  3.886652E-01
  3.933568E-01
  3.941819E-01
  3.997435E-01
  3.988889E-01
  3.986426E-01
  3.918534E-01
  3.901869E-01
  3.871953E-01
  3.908026E-01
  3.906291E-01
  3.937656E-01
  3.916572E-01
  3.932510E-01
  3.902420E-01
  3.912859E-01
  3.886661E-01
  3.916895E-01
  3.917184E-01
  3.957062E-01
  3.934961E-01
  3.934300E-01
  3.884456E-01
  3.886756E-01
  3.862056E-01
  3.887520E-01
  3.869806E-01
  3.891784E-01
  3.875468E-01
  3.910008E-01
  3.906703E-01
  3.939415E-01
  3.916266E-01
  3.925660E-01
  3.891769E-01
  3.904292E-01
  3.877445E-01
  3.893650E-01
  3.869628E-01
  3.891326E-01
  3.870570E-01
  3.884610E-01
  3.847076E-01
  3.848842E-01
  3.815279E-01
  3.834876E-01
  3.824929E-01
  3.871351E-01
  3.891364E-01
  3.958999E-01
  3.965340E-01
  3.976159E-01
  3.913199E-01
  3.895148E-01
  3.871003E-01
  3.933096E-01
  3.974640E-01
  4.042642E-01
  4.024918E-01
  4.012016E-01
  3.945192E-01
  3.934642E-01
  3.900502E-01
  3.918655E-01
  3.899480E-01
  3.872251E-01
  3.927438E-01
  3.991514E-01
  4.004457E-01
  3.985021E-01
  3.926343E-01
  3.892329E-01
  3.874224E-01
  3.895834E-01
  3.910923E-01
  3.933663E-01
  3.931212E-01
  3.934493E-01
  3.918180E-01
  3.915309E-01
  3.903628E-01
  3.916375E-01
  3.922528E-01
  3.941134E-01
  3.933972E-01
  3.928436E-01
  3.902791E-01
  3.893856E-01
  3.876402E-01
  3.877259E-01
  3.865532E-01
  3.869841E-01
  3.863808E-01
  3.875824E-01
  3.872996E-01
  3.878797E-01
  3.865642E-01
  3.870428E-01
  3.872381E-01
  3.897476E-01
  3.904647E-01
  3.911512E-01
  3.890557E-01
  3.880578E-01
  3.860130E-01
  3.855531E-01
  3.833195E-01
  3.822390E-01
  3.802669E-01
  3.810727E-01
  3.822287E-01
  3.864521E-01
  3.903224E-01
  3.953602E-01
  3.968061E-01
  3.963432E-01
  3.919286E-01
  3.891222E-01
  3.877512E-01
  3.915869E-01
  3.963656E-01
  4.019072E-01
  4.024688E-01
  4.001972E-01
  3.937448E-01
  3.884485E-01
  3.832918E-01
  3.820531E-01
  3.823820E-01
  3.874745E-01
  3.939588E-01
  3.982818E-01
  4.010943E-01
  3.967887E-01
  3.914194E-01
  3.848796E-01
  3.838029E-01
  3.843188E-01
  3.886937E-01
  3.911521E-01
  3.945481E-01
  3.943162E-01
  3.943231E-01
  3.911672E-01
  3.903136E-01
  3.892240E-01
  3.920476E-01
  3.933959E-01
  3.954476E-01
  3.935182E-01
  3.925139E-01
  3.898742E-01
  3.903157E-01
  3.894581E-01
  3.903476E-01
  3.884522E-01
  3.880935E-01
  3.862471E-01
  3.875649E-01
  3.878486E-01
  3.900654E-01
  3.893253E-01
  3.894933E-01
  3.872028E-01
  3.872378E-01
  3.861855E-01
  3.880966E-01
  3.884373E-01
  3.900566E-01
  3.880345E-01
  3.866247E-01
  3.833769E-01
  3.837557E-01
  3.840457E-01
  3.872459E-01
  3.884712E-01
  3.915573E-01
  3.924621E-01
  3.943802E-01
  3.923486E-01
  3.907745E-01
  3.877735E-01
  3.894971E-01
  3.923073E-01
  3.981729E-01
  4.000619E-01
  4.001730E-01
  3.950813E-01
  3.910529E-01
  3.860587E-01
  3.847417E-01
  3.830404E-01
  3.850705E-01
  3.840661E-01
  3.924973E-01
  3.949836E-01
  3.985804E-01
  3.927370E-01
  3.897310E-01
  3.829333E-01
  3.840128E-01
  3.831087E-01
  3.886524E-01
  3.893483E-01
  3.939192E-01
  3.919569E-01
  3.935735E-01
  3.897430E-01
  3.914429E-01
  3.894273E-01
  3.932894E-01
  3.922885E-01
  3.954870E-01
  3.926386E-01
  3.938465E-01
  3.895794E-01
  3.901311E-01
  3.860287E-01
  3.873201E-01
  3.841623E-01
  3.862379E-01
  3.837733E-01
  3.866699E-01
  3.850474E-01
  3.883509E-01
  3.864500E-01
  3.892826E-01
  3.872788E-01
  3.902871E-01
  3.882041E-01
  3.907070E-01
  3.879647E-01
  3.897303E-01
  3.859553E-01
  3.867602E-01
  3.833258E-01
  3.864612E-01
  3.863731E-01
  3.916157E-01
  3.908921E-01
  3.936857E-01
  3.906386E-01
  3.921306E-01
  3.882857E-01
  3.890501E-01
  3.853056E-01
  3.878734E-01
  3.873931E-01
  3.930151E-01
  3.933377E-01
  3.967564E-01
  3.927156E-01
  3.916401E-01
  3.848142E-01
  3.834323E-01
  3.790264E-01
  3.823970E-01
  3.879760E-01
  3.936329E-01
  3.933390E-01
  3.965811E-01
  3.904730E-01
  3.882393E-01
  3.808456E-01
  3.819332E-01
  3.802347E-01
  3.863365E-01
  3.871213E-01
  3.928965E-01
  3.909698E-01
  3.930431E-01
  3.883305E-01
  3.902282E-01
  3.882017E-01
  3.937528E-01
  3.935927E-01
  3.978420E-01
  3.940113E-01
  3.945710E-01
  3.888717E-01
  3.896146E-01
  3.854091E-01
  3.877299E-01
  3.844754E-01
  3.871941E-01
  3.847177E-01
  3.893604E-01
  3.892333E-01
  3.946106E-01
  3.920217E-01
  3.929231E-01
  3.869766E-01
  3.879790E-01
  3.853579E-01
  3.903704E-01
  3.897078E-01
  3.934070E-01
  3.891000E-01
  3.897491E-01
  3.858789E-01
  3.905759E-01
  3.912597E-01
  3.970358E-01
  3.940439E-01
  3.944891E-01
  3.885287E-01
  3.893593E-01
  3.852299E-01
  3.873346E-01
  3.841392E-01
  3.879114E-01
  3.869849E-01
  3.920310E-01
  3.900690E-01
  3.925243E-01
  3.884002E-01
  3.904594E-01
  3.872346E-01
  3.900002E-01
  3.867258E-01
  3.896234E-01
  3.862178E-01
  3.910086E-01
  3.905811E-01
  3.934279E-01
  3.891279E-01
  3.887798E-01
  3.839070E-01
  3.854399E-01
  3.836254E-01
  3.879134E-01
  3.874968E-01
  3.913657E-01
  3.889583E-01
  3.906797E-01
  3.876521E-01
  3.909012E-01
  3.905434E-01
  3.956970E-01
  3.951015E-01
  3.980558E-01
  3.943142E-01
  3.942511E-01
  3.882447E-01
  3.870876E-01
  3.818514E-01
  3.832616E-01
  3.814171E-01
  3.855402E-01
  3.850622E-01
  3.897076E-01
  3.893490E-01
  3.934295E-01
  3.912917E-01
  3.931615E-01
  3.899629E-01
  3.925315E-01
  3.907361E-01
  3.937927E-01
  3.909434E-01
  3.920418E-01
  3.875074E-01
  3.883975E-01
  3.859747E-01
  3.907677E-01
  3.918792E-01
  3.971293E-01
  3.946098E-01
  3.945985E-01
  3.888396E-01
  3.890229E-01
  3.854598E-01
  3.874471E-01
  3.844860E-01
  3.866127E-01
  3.842390E-01
  3.874210E-01
  3.859865E-01
  3.896225E-01
  3.880892E-01
  3.910847E-01
  3.882761E-01
  3.896291E-01
  3.857389E-01
  3.876661E-01
  3.888071E-01
  3.900856E-01
  3.896166E-01
  3.921468E-01
  3.904907E-01
  3.904407E-01
  3.869500E-01
  3.871122E-01
  3.856799E-01
  3.884690E-01
  3.888397E-01
  3.917007E-01
  3.903356E-01
  3.908043E-01
  3.882563E-01
  3.900595E-01
  3.909459E-01
  3.960465E-01
  3.974834E-01
  3.995733E-01
  3.959388E-01
  3.935942E-01
  3.880580E-01
  3.865298E-01
  3.837323E-01
  3.854863E-01
  3.852518E-01
  3.882222E-01
  3.884124E-01
  3.922202E-01
  3.937154E-01
  3.976676E-01
  3.964853E-01
  3.958905E-01
  3.914930E-01
  3.913803E-01
  3.904299E-01
  3.936393E-01
  3.932716E-01
  3.941124E-01
  3.904251E-01
  3.897145E-01
  3.878373E-01
  3.913154E-01
  3.928885E-01
  3.961283E-01
  3.936890E-01
  3.924710E-01
  3.885480E-01
  3.889938E-01
  3.874066E-01
  3.887891E-01
  3.871053E-01
  3.888335E-01
  3.881529E-01
  3.901948E-01
  3.882289E-01
  3.885140E-01
  3.864402E-01
  3.889280E-01
  3.896283E-01
  3.929233E-01
  3.915733E-01
  3.917117E-01
  3.844059E-01
  3.859634E-01
  3.872569E-01
  3.901513E-01
  3.912172E-01
  3.927898E-01
  3.922134E-01
  3.925312E-01
  3.915574E-01
  3.923154E-01
  3.919262E-01
  3.924574E-01
  3.908311E-01
  3.902252E-01
  3.890846E-01
  3.909372E-01
  3.928842E-01
  3.964041E-01
  3.973724E-01
  3.977270E-01
  3.948734E-01
  3.922283E-01
  3.879447E-01
  3.856475E-01
  3.835902E-01
  3.848626E-01
  3.862581E-01
  3.891912E-01
  3.900311E-01
  3.914841E-01
  3.914183E-01
  3.927567E-01
  3.926044E-01
  3.936941E-01
  3.937441E-01
  3.955556E-01
  3.956741E-01
  3.957639E-01
  3.928627E-01
  3.905395E-01
  3.873997E-01
  3.870186E-01
  3.868595E-01
  3.890707E-01
  3.900268E-01
  3.914916E-01
  3.905206E-01
  3.904858E-01
  3.896194E-01
  3.908098E-01
  3.906803E-01
  3.911788E-01
  3.896952E-01
  3.896828E-01
  3.890002E-01
  3.900841E-01
  3.896031E-01
  3.899881E-01
  3.888751E-01
  3.892910E-01
  3.883868E-01
  3.883374E-01
  3.863040E-01
  3.855721E-01
  3.855753E-01
  3.854096E-01
  3.867617E-01
  3.899477E-01
  3.922647E-01
  3.937752E-01
  3.932659E-01
  3.927328E-01
  3.919657E-01
  3.925918E-01
  3.931164E-01
  3.938427E-01
  3.928484E-01
  3.914014E-01
  3.894114E-01
  3.894455E-01
  3.909934E-01
  3.944328E-01
  3.966860E-01
  3.972118E-01
  3.945406E-01
  3.911284E-01
  3.876621E-01
  3.866727E-01
  3.873353E-01
  3.900727E-01
  3.922783E-01
  3.938103E-01
  3.933101E-01
  3.929863E-01
  3.927496E-01
  3.937174E-01
  3.937425E-01
  3.934338E-01
  3.922072E-01
  3.922143E-01
  3.924065E-01
  3.930462E-01
  3.920165E-01
  3.905006E-01
  3.882690E-01
  3.875770E-01
  3.876938E-01
  3.892092E-01
  3.897930E-01
  3.898581E-01
  3.886869E-01
  3.887390E-01
  3.896241E-01
  3.918163E-01
  3.926197E-01
  3.925333E-01
  3.913778E-01
  3.918701E-01
  3.931248E-01
  3.948728E-01
  3.942416E-01
  3.922949E-01
  3.894984E-01
  3.887478E-01
  3.890494E-01
  3.901700E-01
  3.894287E-01
  3.878396E-01
  3.819943E-01
  3.835035E-01
  3.853529E-01
  3.889482E-01
  3.913318E-01
  3.938666E-01
  3.940704E-01
  3.943302E-01
  3.932598E-01
  3.936116E-01
  3.931950E-01
  3.934266E-01
  3.916473E-01
  3.903592E-01
  3.885731E-01
  3.893442E-01
  3.905674E-01
  3.934072E-01
  3.944583E-01
  3.949436E-01
  3.926469E-01
  3.903959E-01
  3.871897E-01
  3.862852E-01
  3.863558E-01
  3.893875E-01
  3.920081E-01
  3.944898E-01
  3.935943E-01
  3.919344E-01
  3.889271E-01
  3.880218E-01
  3.875720E-01
  3.895018E-01
  3.911844E-01
  3.937936E-01
  3.939248E-01
  3.928743E-01
  3.890438E-01
  3.862739E-01
  3.841171E-01
  3.850841E-01
  3.861440E-01
  3.880118E-01
  3.878344E-01
  3.880736E-01
  3.876450E-01
  3.894227E-01
  3.910710E-01
  3.935071E-01
  3.933587E-01
  3.925922E-01
  3.902750E-01
  3.900828E-01
  3.905369E-01
  3.930031E-01
  3.939637E-01
  3.946618E-01
  3.930674E-01
  3.918735E-01
  3.892970E-01
  3.874941E-01
  3.845421E-01
  3.831583E-01
  3.851138E-01
  3.856213E-01
  3.861626E-01
  3.896801E-01
  3.910455E-01
  3.928821E-01
  3.913282E-01
  3.909869E-01
  3.892559E-01
  3.904840E-01
  3.906166E-01
  3.923610E-01
  3.910224E-01
  3.902816E-01
  3.874167E-01
  3.876024E-01
  3.879862E-01
  3.918370E-01
  3.937719E-01
  3.957220E-01
  3.932259E-01
  3.909813E-01
  3.871412E-01
  3.870896E-01
  3.876574E-01
  3.917673E-01
  3.939744E-01
  3.963419E-01
  3.946045E-01
  3.935100E-01
  3.907676E-01
  3.907659E-01
  3.893797E-01
  3.897888E-01
  3.883278E-01
  3.891412E-01
  3.884913E-01
  3.895023E-01
  3.879151E-01
  3.876734E-01
  3.858799E-01
  3.869511E-01
  3.871449E-01
  3.893985E-01
  3.891190E-01
  3.899002E-01
  3.887871E-01
  3.904106E-01
  3.909908E-01
  3.930592E-01
  3.916274E-01
  3.906075E-01
  3.879463E-01
  3.890903E-01
  3.904806E-01
  3.942773E-01
  3.948572E-01
  3.954035E-01
  3.931142E-01
  3.929889E-01
  3.915519E-01
  3.918281E-01
  3.893385E-01
  3.879806E-01
  3.833135E-01
  3.855408E-01
  3.860412E-01
  3.892931E-01
  3.899209E-01
  3.922833E-01
  3.910273E-01
  3.913053E-01
  3.889843E-01
  3.897496E-01
  3.886784E-01
  3.899916E-01
  3.881674E-01
  3.883744E-01
  3.865748E-01
  3.883824E-01
  3.888552E-01
  3.922859E-01
  3.929306E-01
  3.950105E-01
  3.930717E-01
  3.920989E-01
  3.878672E-01
  3.866084E-01
  3.846825E-01
  3.874278E-01
  3.890892E-01
  3.928190E-01
  3.921626E-01
  3.919059E-01
  3.882454E-01
  3.875835E-01
  3.858462E-01
  3.879495E-01
  3.883756E-01
  3.910885E-01
  3.901869E-01
  3.902026E-01
  3.867827E-01
  3.861137E-01
  3.843064E-01
  3.863191E-01
  3.864543E-01
  3.887484E-01
  3.880368E-01
  3.896583E-01
  3.891842E-01
  3.915249E-01
  3.911033E-01
  3.920735E-01
  3.892585E-01
  3.882607E-01
  3.853397E-01
  3.863450E-01
  3.865518E-01
  3.902938E-01
  3.917274E-01
  3.949428E-01
  3.943711E-01
  3.946815E-01
  3.910641E-01
  3.891798E-01
  3.851368E-01
  3.847200E-01
  3.879343E-01
  3.885182E-01
  3.879707E-01
  3.900290E-01
  3.901725E-01
  3.913779E-01
  3.894767E-01
  3.888319E-01
  3.865836E-01
  3.872250E-01
  3.868319E-01
  3.885124E-01
  3.877594E-01
  3.883151E-01
  3.869196E-01
  3.881701E-01
  3.886950E-01
  3.921120E-01
  3.937250E-01
  3.962175E-01
  3.948584E-01
  3.935299E-01
  3.893655E-01
  3.876456E-01
  3.856306E-01
  3.873208E-01
  3.881807E-01
  3.908773E-01
  3.907643E-01
  3.917148E-01
  3.904696E-01
  3.912319E-01
  3.899386E-01
  3.900439E-01
  3.878258E-01
  3.877522E-01
  3.865727E-01
  3.880990E-01
  3.879767E-01
  3.894697E-01
  3.885774E-01
  3.893971E-01
  3.885188E-01
  3.899252E-01
  3.895390E-01
  3.908145E-01
  3.897777E-01
  3.903824E-01
  3.888319E-01
  3.887920E-01
  3.864308E-01
  3.861656E-01
  3.851176E-01
  3.875394E-01
  3.890165E-01
  3.921051E-01
  3.920389E-01
  3.927062E-01
  3.909717E-01
  3.913168E-01
  3.900389E-01
  3.907606E-01
  3.893803E-01
  3.896454E-01
  3.879868E-01
  3.891784E-01
  3.888714E-01
  3.892270E-01
  3.894419E-01
  3.906641E-01
  3.907153E-01
  3.905672E-01
  3.891346E-01
  3.884274E-01
  3.873114E-01
  3.870679E-01
  3.863391E-01
  3.869552E-01
  3.878895E-01
  3.902355E-01
  3.917715E-01
  3.933555E-01
  3.937653E-01
  3.947614E-01
  3.946513E-01
  3.939730E-01
  3.908115E-01
  3.872533E-01
  3.835304E-01
  3.825063E-01
  3.831008E-01
  3.856486E-01
  3.871279E-01
  3.879469E-01
  3.870228E-01
  3.868966E-01
  3.870525E-01
  3.888268E-01
  3.900072E-01
  3.910995E-01
  3.903542E-01
  3.895469E-01
  3.880555E-01
  3.878817E-01
  3.876780E-01
  3.884426E-01
  3.883999E-01
  3.889129E-01
  3.887673E-01
  3.893807E-01
  3.890644E-01
  3.888725E-01
  3.873869E-01
  3.864494E-01
  3.853443E-01
  3.859372E-01
  3.867384E-01
  3.885059E-01
  3.891638E-01
  3.898929E-01
  3.895600E-01
  3.897790E-01
  3.889216E-01
  3.880598E-01
  3.860403E-01
  3.851966E-01
  3.849923E-01
  3.867276E-01
  3.947491E-01
  3.933167E-01
  3.915872E-01
  3.897062E-01
  3.895036E-01
  3.892291E-01
  3.894715E-01
  3.887004E-01
  3.884270E-01
  3.876119E-01
  3.875545E-01
  3.869131E-01
  3.871355E-01
  3.872897E-01
  3.888390E-01
  3.902353E-01
  3.922350E-01
  3.932011E-01
  3.944575E-01
  3.947647E-01
  3.951049E-01
  3.936377E-01
  3.914872E-01
  3.879593E-01
  3.854566E-01
  3.836373E-01
  3.840036E-01
  3.847349E-01
  3.862847E-01
  3.869511E-01
  3.882270E-01
  3.891508E-01
  3.907790E-01
  3.910679E-01
  3.907885E-01
  3.890285E-01
  3.881482E-01
  3.877059E-01
  3.889239E-01
  3.896853E-01
  3.904835E-01
  3.899909E-01
  3.901380E-01
  3.901427E-01
  3.909753E-01
  3.904430E-01
  3.893129E-01
  3.867558E-01
  3.851274E-01
  3.840212E-01
  3.850201E-01
  3.866974E-01
  3.898203E-01
  3.921302E-01
  3.936998E-01
  3.924659E-01
  3.900309E-01
  3.863246E-01
  3.840048E-01
  3.827165E-01
  3.840885E-01
  3.866223E-01
  3.906621E-01
  3.933872E-01
  3.956141E-01
  3.945791E-01
  3.924565E-01
  3.890292E-01
  3.882898E-01
  3.880564E-01
  3.896922E-01
  3.898472E-01
  3.904230E-01
  3.891076E-01
  3.883857E-01
  3.862736E-01
  3.858853E-01
  3.858402E-01
  3.886886E-01
  3.910637E-01
  3.936314E-01
  3.932271E-01
  3.929550E-01
  3.918460E-01
  3.926672E-01
  3.920807E-01
  3.911122E-01
  3.872432E-01
  3.841437E-01
  3.812919E-01
  3.818583E-01
  3.828427E-01
  3.849650E-01
  3.848472E-01
  3.852376E-01
  3.852048E-01
  3.879331E-01
  3.904636E-01
  3.934688E-01
  3.932796E-01
  3.922632E-01
  3.892400E-01
  3.878649E-01
  3.864588E-01
  3.872311E-01
  3.874191E-01
  3.890217E-01
  3.894758E-01
  3.907102E-01
  3.898085E-01
  3.888471E-01
  3.859855E-01
  3.846690E-01
  3.836737E-01
  3.857445E-01
  3.880388E-01
  3.915495E-01
  3.924480E-01
  3.923368E-01
  3.893705E-01
  3.871763E-01
  3.844119E-01
  3.835623E-01
  3.821709E-01
  3.829048E-01
  3.842411E-01
  3.886394E-01
  3.924047E-01
  4.003296E-01
  3.971049E-01
  3.938964E-01
  3.895469E-01
  3.882463E-01
  3.866543E-01
  3.873079E-01
  3.866393E-01
  3.876232E-01
  3.868994E-01
  3.874019E-01
  3.860181E-01
  3.863771E-01
  3.859363E-01
  3.880162E-01
  3.889251E-01
  3.909442E-01
  3.904365E-01
  3.909169E-01
  3.899161E-01
  3.908908E-01
  3.902516E-01
  3.904907E-01
  3.882424E-01
  3.872729E-01
  3.853515E-01
  3.860977E-01
  3.860106E-01
  3.874918E-01
  3.871361E-01
  3.886732E-01
  3.895821E-01
  3.926835E-01
  3.934481E-01
  3.938647E-01
  3.909369E-01
  3.893056E-01
  3.871633E-01
  3.878829E-01
  3.875535E-01
  3.886594E-01
  3.881989E-01
  3.899428E-01
  3.907362E-01
  3.926403E-01
  3.910905E-01
  3.890620E-01
  3.847881E-01
  3.833451E-01
  3.826488E-01
  3.855977E-01
  3.880343E-01
  3.919059E-01
  3.929496E-01
  3.936275E-01
  3.907663E-01
  3.884031E-01
  3.846490E-01
  3.837391E-01
  3.831668E-01
  3.863310E-01
  3.898415E-01
  3.957042E-01
  3.987329E-01
  3.963370E-01
  3.941647E-01
  3.926331E-01
  3.883974E-01
  3.877633E-01
  3.860585E-01
  3.875541E-01
  3.866163E-01
  3.878278E-01
  3.862532E-01
  3.868232E-01
  3.847849E-01
  3.855482E-01
  3.848664E-01
  3.877230E-01
  3.882688E-01
  3.900598E-01
  3.876989E-01
  3.871776E-01
  3.852608E-01
  3.875532E-01
  3.882079E-01
  3.904217E-01
  3.883718E-01
  3.877616E-01
  3.853187E-01
  3.869250E-01
  3.871021E-01
  3.893112E-01
  3.878487E-01
  3.884246E-01
  3.876295E-01
  3.909726E-01
  3.924501E-01
  3.952051E-01
  3.932637E-01
  3.920468E-01
  3.878994E-01
  3.868725E-01
  3.845730E-01
  3.859492E-01
  3.859289E-01
  3.890416E-01
  3.896427E-01
  3.916810E-01
  3.895074E-01
  3.882889E-01
  3.842537E-01
  3.837126E-01
  3.826235E-01
  3.857463E-01
  3.872247E-01
  3.906152E-01
  3.900017E-01
  3.903634E-01
  3.878305E-01
  3.885727E-01
  3.879800E-01
  3.901702E-01
  3.892844E-01
  3.903579E-01
  3.895404E-01
  3.925366E-01
  3.937281E-01
  3.958802E-01
  3.922399E-01
  3.923188E-01
  3.884644E-01
  3.890996E-01
  3.857945E-01
  3.866243E-01
  3.835312E-01
  3.849900E-01
  3.829639E-01
  3.855572E-01
  3.843916E-01
  3.874466E-01
  3.863055E-01
  3.888941E-01
  3.866780E-01
  3.877834E-01
  3.843465E-01
  3.853728E-01
  3.834649E-01
  3.869975E-01
  3.871706E-01
  3.911312E-01
  3.899378E-01
  3.920571E-01
  3.900087E-01
  3.925011E-01
  3.909742E-01
  3.931357E-01
  3.908199E-01
  3.931088E-01
  3.922220E-01
  3.956471E-01
  3.935640E-01
  3.935320E-01
  3.882331E-01
  3.877660E-01
  3.849593E-01
  3.876180E-01
  3.864677E-01
  3.891669E-01
  3.878680E-01
  3.913009E-01
  3.908677E-01
  3.935502E-01
  3.900110E-01
  3.888849E-01
  3.835722E-01
  3.838866E-01
  3.821449E-01
  3.858811E-01
  3.859617E-01
  3.899186E-01
  3.892597E-01
  3.922391E-01
  3.908303E-01
  3.936055E-01
  3.924225E-01
  3.953121E-01
  3.936451E-01
  3.957902E-01
  3.938571E-01
  3.963080E-01
  3.944292E-01
  3.893031E-01
  3.879660E-01
  3.907318E-01
  3.880192E-01
  3.898366E-01
  3.869507E-01
  3.887679E-01
  3.855641E-01
  3.869430E-01
  3.838199E-01
  3.860399E-01
  3.842316E-01
  3.877525E-01
  3.868361E-01
  3.904546E-01
  3.882745E-01
  3.892922E-01
  3.844172E-01
  3.846432E-01
  3.820551E-01
  3.864461E-01
  3.871066E-01
  3.916538E-01
  3.896061E-01
  3.912552E-01
  3.885579E-01
  3.917630E-01
  3.905839E-01
  3.933050E-01
  3.900132E-01
  3.912673E-01
  3.887156E-01
  3.919920E-01
  3.904926E-01
  3.927533E-01
  3.891071E-01
  3.897613E-01
  3.858649E-01
  3.872763E-01
  3.847245E-01
  3.879133E-01
  3.873197E-01
  3.918760E-01
  3.910159E-01
  3.934443E-01
  3.895016E-01
  3.895566E-01
  3.851590E-01
  3.865371E-01