# vtk DataFile Version 2.0
title
ASCII
DATASET STRUCTURED_GRID
DIMENSIONS   64   64    1
POINTS   4096  float
  0.000000E+00  0.000000E+00  0.000000E+00
  0.000000E+00  3.906250E-01  0.000000E+00
  0.000000E+00  7.812500E-01  0.000000E+00
  0.000000E+00  1.171875E+00  0.000000E+00
  0.000000E+00  1.562500E+00  0.000000E+00
  0.000000E+00  1.953125E+00  0.000000E+00
  0.000000E+00  2.343750E+00  0.000000E+00
  0.000000E+00  2.734375E+00  0.000000E+00
  0.000000E+00  3.125000E+00  0.000000E+00
  0.000000E+00  3.515625E+00  0.000000E+00
  0.000000E+00  3.906250E+00  0.000000E+00
  0.000000E+00  4.296875E+00  0.000000E+00
  0.000000E+00  4.687500E+00  0.000000E+00
  0.000000E+00  5.078125E+00  0.000000E+00
  0.000000E+00  5.468750E+00  0.000000E+00
  0.000000E+00  5.859375E+00  0.000000E+00
  0.000000E+00  6.250000E+00  0.000000E+00
  0.000000E+00  6.640625E+00  0.000000E+00
  0.000000E+00  7.031250E+00  0.000000E+00
  0.000000E+00  7.421875E+00  0.000000E+00
  0.000000E+00  7.812500E+00  0.000000E+00
  0.000000E+00  8.203125E+00  0.000000E+00
  0.000000E+00  8.593750E+00  0.000000E+00
  0.000000E+00  8.984375E+00  0.000000E+00
  0.000000E+00  9.375000E+00  0.000000E+00
  0.000000E+00  9.765625E+00  0.000000E+00
  0.000000E+00  1.015625E+01  0.000000E+00
  0.000000E+00  1.054688E+01  0.000000E+00
  0.000000E+00  1.093750E+01  0.000000E+00
  0.000000E+00  1.132812E+01  0.000000E+00
  0.000000E+00  1.171875E+01  0.000000E+00
  0.000000E+00  1.210938E+01  0.000000E+00
  0.000000E+00  1.250000E+01  0.000000E+00
  0.000000E+00  1.289062E+01  0.000000E+00
  0.000000E+00  1.328125E+01  0.000000E+00
  0.000000E+00  1.367188E+01  0.000000E+00
  0.000000E+00  1.406250E+01  0.000000E+00
  0.000000E+00  1.445312E+01  0.000000E+00
  0.000000E+00  1.484375E+01  0.000000E+00
  0.000000E+00  1.523438E+01  0.000000E+00
  0.000000E+00  1.562500E+01  0.000000E+00
  0.000000E+00  1.601562E+01  0.000000E+00
  0.000000E+00  1.640625E+01  0.000000E+00
  0.000000E+00  1.679688E+01  0.000000E+00
  0.000000E+00  1.718750E+01  0.000000E+00
  0.000000E+00  1.757812E+01  0.000000E+00
  0.000000E+00  1.796875E+01  0.000000E+00
  0.000000E+00  1.835938E+01  0.000000E+00
  0.000000E+00  1.875000E+01  0.000000E+00
  0.000000E+00  1.914062E+01  0.000000E+00
  0.000000E+00  1.953125E+01  0.000000E+00
  0.000000E+00  1.992188E+01  0.000000E+00
  0.000000E+00  2.031250E+01  0.000000E+00
  0.000000E+00  2.070312E+01  0.000000E+00
  0.000000E+00  2.109375E+01  0.000000E+00
  0.000000E+00  2.148438E+01  0.000000E+00
  0.000000E+00  2.187500E+01  0.000000E+00
  0.000000E+00  2.226562E+01  0.000000E+00
  0.000000E+00  2.265625E+01  0.000000E+00
  0.000000E+00  2.304688E+01  0.000000E+00
  0.000000E+00  2.343750E+01  0.000000E+00
  0.000000E+00  2.382812E+01  0.000000E+00
  0.000000E+00  2.421875E+01  0.000000E+00
  0.000000E+00  2.460938E+01  0.000000E+00
  3.906250E-01  0.000000E+00  0.000000E+00
  3.906250E-01  3.906250E-01  0.000000E+00
  3.906250E-01  7.812500E-01  0.000000E+00
  3.906250E-01  1.171875E+00  0.000000E+00
  3.906250E-01  1.562500E+00  0.000000E+00
  3.906250E-01  1.953125E+00  0.000000E+00
  3.906250E-01  2.343750E+00  0.000000E+00
  3.906250E-01  2.734375E+00  0.000000E+00
  3.906250E-01  3.125000E+00  0.000000E+00
  3.906250E-01  3.515625E+00  0.000000E+00
  3.906250E-01  3.906250E+00  0.000000E+00
  3.906250E-01  4.296875E+00  0.000000E+00
  3.906250E-01  4.687500E+00  0.000000E+00
  3.906250E-01  5.078125E+00  0.000000E+00
  3.906250E-01  5.468750E+00  0.000000E+00
  3.906250E-01  5.859375E+00  0.000000E+00
  3.906250E-01  6.250000E+00  0.000000E+00
  3.906250E-01  6.640625E+00  0.000000E+00
  3.906250E-01  7.031250E+00  0.000000E+00
  3.906250E-01  7.421875E+00  0.000000E+00
  3.906250E-01  7.812500E+00  0.000000E+00
  3.906250E-01  8.203125E+00  0.000000E+00
  3.906250E-01  8.593750E+00  0.000000E+00
  3.906250E-01  8.984375E+00  0.000000E+00
  3.906250E-01  9.375000E+00  0.000000E+00
  3.906250E-01  9.765625E+00  0.000000E+00
  3.906250E-01  1.015625E+01  0.000000E+00
  3.906250E-01  1.054688E+01  0.000000E+00
  3.906250E-01  1.093750E+01  0.000000E+00
  3.906250E-01  1.132812E+01  0.000000E+00
  3.906250E-01  1.171875E+01  0.000000E+00
  3.906250E-01  1.210938E+01  0.000000E+00
  3.906250E-01  1.250000E+01  0.000000E+00
  3.906250E-01  1.289062E+01  0.000000E+00
  3.906250E-01  1.328125E+01  0.000000E+00
  3.906250E-01  1.367188E+01  0.000000E+00
  3.906250E-01  1.406250E+01  0.000000E+00
  3.906250E-01  1.445312E+01  0.000000E+00
  3.906250E-01  1.484375E+01  0.000000E+00
  3.906250E-01  1.523438E+01  0.000000E+00
  3.906250E-01  1.562500E+01  0.000000E+00
  3.906250E-01  1.601562E+01  0.000000E+00
  3.906250E-01  1.640625E+01  0.000000E+00
  3.906250E-01  1.679688E+01  0.000000E+00
  3.906250E-01  1.718750E+01  0.000000E+00
  3.906250E-01  1.757812E+01  0.000000E+00
  3.906250E-01  1.796875E+01  0.000000E+00
  3.906250E-01  1.835938E+01  0.000000E+00
  3.906250E-01  1.875000E+01  0.000000E+00
  3.906250E-01  1.914062E+01  0.000000E+00
  3.906250E-01  1.953125E+01  0.000000E+00
  3.906250E-01  1.992188E+01  0.000000E+00
  3.906250E-01  2.031250E+01  0.000000E+00
  3.906250E-01  2.070312E+01  0.000000E+00
  3.906250E-01  2.109375E+01  0.000000E+00
  3.906250E-01  2.148438E+01  0.000000E+00
  3.906250E-01  2.187500E+01  0.000000E+00
  3.906250E-01  2.226562E+01  0.000000E+00
  3.906250E-01  2.265625E+01  0.000000E+00
  3.906250E-01  2.304688E+01  0.000000E+00
  3.906250E-01  2.343750E+01  0.000000E+00
  3.906250E-01  2.382812E+01  0.000000E+00
  3.906250E-01  2.421875E+01  0.000000E+00
  3.906250E-01  2.460938E+01  0.000000E+00
  7.812500E-01  0.000000E+00  0.000000E+00
  7.812500E-01  3.906250E-01  0.000000E+00
  7.812500E-01  7.812500E-01  0.000000E+00
  7.812500E-01  1.171875E+00  0.000000E+00
  7.812500E-01  1.562500E+00  0.000000E+00
  7.812500E-01  1.953125E+00  0.000000E+00
  7.812500E-01  2.343750E+00  0.000000E+00
  7.812500E-01  2.734375E+00  0.000000E+00
  7.812500E-01  3.125000E+00  0.000000E+00
  7.812500E-01  3.515625E+00  0.000000E+00
  7.812500E-01  3.906250E+00  0.000000E+00
  7.812500E-01  4.296875E+00  0.000000E+00
  7.812500E-01  4.687500E+00  0.000000E+00
  7.812500E-01  5.078125E+00  0.000000E+00
  7.812500E-01  5.468750E+00  0.000000E+00
  7.812500E-01  5.859375E+00  0.000000E+00
  7.812500E-01  6.250000E+00  0.000000E+00
  7.812500E-01  6.640625E+00  0.000000E+00
  7.812500E-01  7.031250E+00  0.000000E+00
  7.812500E-01  7.421875E+00  0.000000E+00
  7.812500E-01  7.812500E+00  0.000000E+00
  7.812500E-01  8.203125E+00  0.000000E+00
  7.812500E-01  8.593750E+00  0.000000E+00
  7.812500E-01  8.984375E+00  0.000000E+00
  7.812500E-01  9.375000E+00  0.000000E+00
  7.812500E-01  9.765625E+00  0.000000E+00
  7.812500E-01  1.015625E+01  0.000000E+00
  7.812500E-01  1.054688E+01  0.000000E+00
  7.812500E-01  1.093750E+01  0.000000E+00
  7.812500E-01  1.132812E+01  0.000000E+00
  7.812500E-01  1.171875E+01  0.000000E+00
  7.812500E-01  1.210938E+01  0.000000E+00
  7.812500E-01  1.250000E+01  0.000000E+00
  7.812500E-01  1.289062E+01  0.000000E+00
  7.812500E-01  1.328125E+01  0.000000E+00
  7.812500E-01  1.367188E+01  0.000000E+00
  7.812500E-01  1.406250E+01  0.000000E+00
  7.812500E-01  1.445312E+01  0.000000E+00
  7.812500E-01  1.484375E+01  0.000000E+00
  7.812500E-01  1.523438E+01  0.000000E+00
  7.812500E-01  1.562500E+01  0.000000E+00
  7.812500E-01  1.601562E+01  0.000000E+00
  7.812500E-01  1.640625E+01  0.000000E+00
  7.812500E-01  1.679688E+01  0.000000E+00
  7.812500E-01  1.718750E+01  0.000000E+00
  7.812500E-01  1.757812E+01  0.000000E+00
  7.812500E-01  1.796875E+01  0.000000E+00
  7.812500E-01  1.835938E+01  0.000000E+00
  7.812500E-01  1.875000E+01  0.000000E+00
  7.812500E-01  1.914062E+01  0.000000E+00
  7.812500E-01  1.953125E+01  0.000000E+00
  7.812500E-01  1.992188E+01  0.000000E+00
  7.812500E-01  2.031250E+01  0.000000E+00
  7.812500E-01  2.070312E+01  0.000000E+00
  7.812500E-01  2.109375E+01  0.000000E+00
  7.812500E-01  2.148438E+01  0.000000E+00
  7.812500E-01  2.187500E+01  0.000000E+00
  7.812500E-01  2.226562E+01  0.000000E+00
  7.812500E-01  2.265625E+01  0.000000E+00
  7.812500E-01  2.304688E+01  0.000000E+00
  7.812500E-01  2.343750E+01  0.000000E+00
  7.812500E-01  2.382812E+01  0.000000E+00
  7.812500E-01  2.421875E+01  0.000000E+00
  7.812500E-01  2.460938E+01  0.000000E+00
  1.171875E+00  0.000000E+00  0.000000E+00
  1.171875E+00  3.906250E-01  0.000000E+00
  1.171875E+00  7.812500E-01  0.000000E+00
  1.171875E+00  1.171875E+00  0.000000E+00
  1.171875E+00  1.562500E+00  0.000000E+00
  1.171875E+00  1.953125E+00  0.000000E+00
  1.171875E+00  2.343750E+00  0.000000E+00
  1.171875E+00  2.734375E+00  0.000000E+00
  1.171875E+00  3.125000E+00  0.000000E+00
  1.171875E+00  3.515625E+00  0.000000E+00
  1.171875E+00  3.906250E+00  0.000000E+00
  1.171875E+00  4.296875E+00  0.000000E+00
  1.171875E+00  4.687500E+00  0.000000E+00
  1.171875E+00  5.078125E+00  0.000000E+00
  1.171875E+00  5.468750E+00  0.000000E+00
  1.171875E+00  5.859375E+00  0.000000E+00
  1.171875E+00  6.250000E+00  0.000000E+00
  1.171875E+00  6.640625E+00  0.000000E+00
  1.171875E+00  7.031250E+00  0.000000E+00
  1.171875E+00  7.421875E+00  0.000000E+00
  1.171875E+00  7.812500E+00  0.000000E+00
  1.171875E+00  8.203125E+00  0.000000E+00
  1.171875E+00  8.593750E+00  0.000000E+00
  1.171875E+00  8.984375E+00  0.000000E+00
  1.171875E+00  9.375000E+00  0.000000E+00
  1.171875E+00  9.765625E+00  0.000000E+00
  1.171875E+00  1.015625E+01  0.000000E+00
  1.171875E+00  1.054688E+01  0.000000E+00
  1.171875E+00  1.093750E+01  0.000000E+00
  1.171875E+00  1.132812E+01  0.000000E+00
  1.171875E+00  1.171875E+01  0.000000E+00
  1.171875E+00  1.210938E+01  0.000000E+00
  1.171875E+00  1.250000E+01  0.000000E+00
  1.171875E+00  1.289062E+01  0.000000E+00
  1.171875E+00  1.328125E+01  0.000000E+00
  1.171875E+00  1.367188E+01  0.000000E+00
  1.171875E+00  1.406250E+01  0.000000E+00
  1.171875E+00  1.445312E+01  0.000000E+00
[...]
POINT_DATA   4096
SCALARS CON  float  1
LOOKUP_TABLE default
  3.964145E-01
  3.959019E-01
  4.007939E-01
  3.984729E-01
  3.993101E-01
  3.939815E-01
  3.955551E-01
  3.939477E-01
  3.985716E-01
  3.966027E-01
  3.981808E-01
  3.933826E-01
  3.944306E-01
  3.912380E-01
  3.945798E-01
  3.934127E-01
  3.980873E-01
  3.969528E-01
  3.999141E-01
  3.957647E-01
  3.960845E-01
  3.911425E-01
  3.922968E-01
  3.885387E-01
  3.902242E-01
  3.868297E-01
  3.899343E-01
  3.894361E-01
  3.954526E-01
  3.953452E-01
  3.983105E-01
  3.937278E-01
  3.945229E-01
  3.917714E-01
  3.961601E-01
  3.950079E-01
  3.974326E-01
  3.926626E-01
  3.929778E-01
  3.888322E-01
  3.910595E-01
  3.882204E-01
  3.905388E-01
  3.872906E-01
  3.896287E-01
  3.874758E-01
  3.922475E-01
  3.933523E-01
  4.003718E-01
  4.000439E-01
  4.014127E-01
  3.941762E-01
  3.921866E-01
  3.878230E-01
  3.931086E-01
  3.961210E-01
  4.046155E-01
  4.046351E-01
  4.062162E-01
  3.999160E-01
  3.990053E-01
  3.939154E-01
  3.954836E-01
  3.926557E-01
  3.971206E-01
  3.979023E-01
  4.036208E-01
  4.028848E-01
  4.026267E-01
  3.956523E-01
  3.938957E-01
  3.909321E-01
  3.946679E-01
  3.944932E-01
  3.975675E-01
  3.953834E-01
  3.970400E-01
  3.940760E-01
  3.951144E-01
  3.923786E-01
  3.953835E-01
  3.954850E-01
  3.996316E-01
  3.974481E-01
  3.973173E-01
  3.921912E-01
  3.923930E-01
  3.899535E-01
  3.925973E-01
  3.908302E-01
  3.930078E-01
  3.913159E-01
  3.948092E-01
  3.945185E-01
  3.978258E-01
  3.954264E-01
  3.963086E-01
  3.929066E-01
  3.942667E-01
  3.916327E-01
  3.932510E-01
  3.907558E-01
  3.929202E-01
  3.908731E-01
  3.923427E-01
  3.885466E-01
  3.886808E-01
  3.852690E-01
  3.872416E-01
  3.862013E-01
  3.908278E-01
  3.928521E-01
  3.997916E-01
  4.005622E-01
  4.016589E-01
  3.951688E-01
  3.932015E-01
  3.907245E-01
  3.970501E-01
  4.013160E-01
  4.081916E-01
  4.063450E-01
  4.049677E-01
  3.982188E-01
  3.972601E-01
  3.939696E-01
  3.958686E-01
  3.938387E-01
  3.909186E-01
  3.965073E-01
  4.031085E-01
  4.044858E-01
  4.024959E-01
  3.964477E-01
  3.929814E-01
  3.911949E-01
  3.934641E-01
  3.949727E-01
  3.972189E-01
  3.969182E-01
  3.972942E-01
  3.956823E-01
  3.954047E-01
  3.941630E-01
  3.954358E-01
  3.960746E-01
  3.980242E-01
  3.973072E-01
  3.967295E-01
  3.940806E-01
  3.931835E-01
  3.914474E-01
  3.916080E-01
  3.904416E-01
  3.908707E-01
  3.902000E-01
  3.913995E-01
  3.911018E-01
  3.916929E-01
  3.903042E-01
  3.907604E-01
  3.909762E-01
  3.936254E-01
  3.944120E-01
  3.950945E-01
  3.928783E-01
  3.918492E-01
  3.898334E-01
  3.894736E-01
  3.872232E-01
  3.860800E-01
  3.839883E-01
  3.847621E-01
  3.858923E-01
  3.901695E-01
  3.941090E-01
  3.993124E-01
  4.008511E-01
  4.003925E-01
  3.958189E-01
  3.928950E-01
  3.914635E-01
  3.953788E-01
  4.002275E-01
  4.058416E-01
  4.063535E-01
  4.040086E-01
  3.974425E-01
  3.921406E-01
  3.869945E-01
  3.857941E-01
  3.860702E-01
  3.910846E-01
  3.976808E-01
  4.022058E-01
  4.051422E-01
  4.007691E-01
  3.952238E-01
  3.885895E-01
  3.875699E-01
  3.882014E-01
  3.926196E-01
  3.950409E-01
  3.984136E-01
  3.982269E-01
  3.982798E-01
  3.950908E-01
  3.941429E-01
  3.929977E-01
  3.958518E-01
  3.972672E-01
  3.993363E-01
  3.973633E-01
  3.963100E-01
  3.936773E-01
  3.941843E-01
  3.934118E-01
  3.943467E-01
  3.924184E-01
  3.919560E-01
  3.900002E-01
  3.912702E-01
  3.915830E-01
  3.938536E-01
  3.931502E-01
  3.933377E-01
  3.910685E-01
  3.911074E-01
  3.900239E-01
  3.919018E-01
  3.922732E-01
  3.939757E-01
  3.919935E-01
  3.905139E-01
  3.871540E-01
  3.874918E-01
  3.878281E-01
  3.910635E-01
  3.922576E-01
  3.953160E-01
  3.962902E-01
  3.983270E-01
  3.963292E-01
  3.946559E-01
  3.915359E-01
  3.932461E-01
  3.961591E-01
  4.021409E-01
  4.040620E-01
  4.040959E-01
  3.988748E-01
  3.947399E-01
  3.897114E-01
  3.884061E-01
  3.867009E-01
  3.886880E-01
  3.877575E-01
  3.963297E-01
  3.989129E-01
  4.025389E-01
  3.965621E-01
  3.934516E-01
  3.866043E-01
  3.877706E-01
  3.869309E-01
  3.925422E-01
  3.932305E-01
  3.978335E-01
  3.958627E-01
  3.974880E-01
  3.935941E-01
  3.952681E-01
  3.932062E-01
  3.970769E-01
  3.960402E-01
  3.992470E-01
  3.963979E-01
  3.976808E-01
  3.934481E-01
  3.940472E-01
  3.899331E-01
  3.912576E-01
  3.880760E-01
  3.901231E-01
  3.875561E-01
  3.904247E-01
  3.888032E-01
  3.921788E-01
  3.902780E-01
  3.931180E-01
  3.910827E-01
  3.941094E-01
  3.919870E-01
  3.944849E-01
  3.917422E-01
  3.936022E-01
  3.898584E-01
  3.906485E-01
  3.871135E-01
  3.902555E-01
  3.902289E-01
  3.955691E-01
  3.947880E-01
  3.974836E-01
  3.943388E-01
  3.958708E-01
  3.920666E-01
  3.928829E-01
  3.891174E-01
  3.917118E-01
  3.912364E-01
  3.969069E-01
  3.972218E-01
  4.006555E-01
  3.965716E-01
  3.954798E-01
  3.885879E-01
  3.871755E-01
  3.826969E-01
  3.860631E-01
  3.917543E-01
  3.974619E-01
  3.972148E-01
  4.004808E-01
  3.942659E-01
  3.919392E-01
  3.844879E-01
  3.856411E-01
  3.839968E-01
  3.901591E-01
  3.909395E-01
  3.967522E-01
  3.948277E-01
  3.969039E-01
  3.921113E-01
  3.939655E-01
  3.919098E-01
  3.975131E-01
  3.973653E-01
  4.016346E-01
  3.977858E-01
  3.983847E-01
  3.926896E-01
  3.934487E-01
  3.892139E-01
  3.915696E-01
  3.883242E-01
  3.910450E-01
  3.884831E-01
  3.931081E-01
  3.930244E-01
  3.985246E-01
  3.959425E-01
  3.967731E-01
  3.906898E-01
  3.916543E-01
  3.890347E-01
  3.941306E-01
  3.935373E-01
  3.973214E-01
  3.929718E-01
  3.935225E-01
  3.895467E-01
  3.943398E-01
  3.952194E-01
  4.011583E-01
  3.980605E-01
  3.982920E-01
  3.921561E-01
  3.930202E-01
  3.889718E-01
  3.911500E-01
  3.879274E-01
  3.917077E-01
  3.907797E-01
  3.958575E-01
  3.938606E-01
  3.963137E-01
  3.921914E-01
  3.943353E-01
  3.911626E-01
  3.939696E-01
  3.906288E-01
  3.934642E-01
  3.901034E-01
  3.948923E-01
  3.944622E-01
  3.972564E-01
  3.928921E-01
  3.925064E-01
  3.876473E-01
  3.891940E-01
  3.873818E-01
  3.916676E-01
  3.912797E-01
  3.951737E-01
  3.927604E-01
  3.944307E-01
  3.913723E-01
  3.946396E-01
  3.943469E-01
  3.995385E-01
  3.989367E-01
  4.018599E-01
  3.981334E-01
  3.981086E-01
  3.921072E-01
  3.908697E-01
  3.855419E-01
  3.869312E-01
  3.851599E-01
  3.893534E-01
  3.888954E-01
  3.935401E-01
  3.932349E-01
  3.973735E-01
  3.952154E-01
  3.969650E-01
  3.936642E-01
  3.962181E-01
  3.944869E-01
  3.976019E-01
  3.947951E-01
  3.959083E-01
  3.913517E-01
  3.921576E-01
  3.896694E-01
  3.945094E-01
  3.958053E-01
  4.012141E-01
  3.986771E-01
  3.984781E-01
  3.925484E-01
  3.926929E-01
  3.892132E-01
  3.912800E-01
  3.883376E-01
  3.904205E-01
  3.879907E-01
  3.911159E-01
  3.896584E-01
  3.933185E-01
  3.918838E-01
  3.950076E-01
  3.923059E-01
  3.936803E-01
  3.897386E-01
  3.915876E-01
  3.926398E-01
  3.938563E-01
  3.934284E-01
  3.959810E-01
  3.943614E-01
  3.942878E-01
  3.908067E-01
  3.909409E-01
  3.895069E-01
  3.922523E-01
  3.926313E-01
  3.954839E-01
  3.941456E-01
  3.945810E-01
  3.920289E-01
  3.938229E-01
  3.947881E-01
  3.999458E-01
  4.014342E-01
  4.034792E-01
  3.998220E-01
  3.974364E-01
  3.918951E-01
  3.902914E-01
  3.874480E-01
  3.891768E-01
  3.890190E-01
  3.920220E-01
  3.922259E-01
  3.960122E-01
  3.976016E-01
  4.016447E-01
  4.004937E-01
  3.997586E-01
  3.952420E-01
  3.950814E-01
  3.942281E-01
  3.975165E-01
  3.972227E-01
  3.980429E-01
  3.943061E-01
  3.934606E-01
  3.915218E-01
  3.950314E-01
  3.967844E-01
  4.001254E-01
  3.976621E-01
  3.962820E-01
  3.922977E-01
  3.927746E-01
  3.912939E-01
  3.926689E-01
  3.909377E-01
  3.925954E-01
  3.919412E-01
  3.939827E-01
  3.920035E-01
  3.922095E-01
  3.901485E-01
  3.927111E-01
  3.935758E-01
  3.969527E-01
  3.956104E-01
  3.956315E-01
  3.881879E-01
  3.897264E-01
  3.910583E-01
  3.939686E-01
  3.950902E-01
  3.966975E-01
  3.961709E-01
  3.964589E-01
  3.954472E-01
  3.961479E-01
  3.957737E-01
  3.963030E-01
  3.946792E-01
  3.940249E-01
  3.928928E-01
  3.947725E-01
  3.967966E-01
  4.003264E-01
  4.012781E-01
  4.015631E-01
  3.987081E-01
  3.960772E-01
  3.918322E-01
  3.894871E-01
  3.873839E-01
  3.886243E-01
  3.900812E-01
  3.930411E-01
  3.938798E-01
  3.952837E-01
  3.952579E-01
  3.966478E-01
  3.965299E-01
  3.975472E-01
  3.975627E-01
  3.993884E-01
  3.995938E-01
  3.996917E-01
  3.967658E-01
  3.943827E-01
  3.912478E-01
  3.908515E-01
  3.906909E-01
  3.928663E-01
  3.938362E-01
  3.952848E-01
  3.943006E-01
  3.942151E-01
  3.933806E-01
  3.946353E-01
  3.945990E-01
  3.950885E-01
  3.935682E-01
  3.935066E-01
  3.928660E-01
  3.939760E-01
  3.934939E-01
  3.937819E-01
  3.926089E-01
  3.930076E-01
  3.921841E-01
  3.921818E-01
  3.901682E-01
  3.893778E-01
  3.892899E-01
  3.891016E-01
  3.905202E-01
  3.937846E-01
  3.961694E-01
  3.976889E-01
  3.971824E-01
  3.966305E-01
  3.958576E-01
  3.964614E-01
  3.969923E-01
  3.977236E-01
  3.967477E-01
  3.952781E-01
  3.932583E-01
  3.932506E-01
  3.948059E-01
  3.982639E-01
  4.005406E-01
  4.010334E-01
  3.983293E-01
  3.948982E-01
  3.914715E-01
  3.905178E-01
  3.912243E-01
  3.939895E-01
  3.962300E-01
  3.977220E-01
  3.971222E-01
  3.966851E-01
  3.964544E-01
  3.975054E-01
  3.976127E-01
  3.972841E-01
  3.960252E-01
  3.960383E-01
  3.962975E-01
  3.969531E-01
  3.958898E-01
  3.943064E-01
  3.920606E-01
  3.913815E-01
  3.915459E-01
  3.930767E-01
  3.936393E-01
  3.935994E-01
  3.923224E-01
  3.923359E-01
  3.933390E-01
  3.957016E-01
  3.966099E-01
  3.964581E-01
  3.951942E-01
  3.956600E-01
  3.970451E-01
  3.989229E-01
  3.982953E-01
  3.961746E-01
  3.931941E-01
  3.923590E-01
  3.927301E-01
  3.939472E-01
  3.932559E-01
  3.916140E-01
  3.857763E-01
  3.872915E-01
  3.891672E-01
  3.927654E-01
  3.951582E-01
  3.976958E-01
  3.979139E-01
  3.981569E-01
  3.970751E-01
  3.974311E-01
  3.970687E-01
  3.973373E-01
  3.955569E-01
  3.942096E-01
  3.923780E-01
  3.931241E-01
  3.943609E-01
  3.972023E-01
  3.982529E-01
  3.987130E-01
  3.964098E-01
  3.941605E-01
  3.909854E-01
  3.901020E-01
  3.902131E-01
  3.932949E-01
  3.959809E-01
  3.984544E-01
  3.974673E-01
  3.956660E-01
  3.925918E-01
  3.916958E-01
  3.912995E-01
  3.932532E-01
  3.949761E-01
  3.976441E-01
  3.978365E-01
  3.967501E-01
  3.928148E-01
  3.899432E-01
  3.878061E-01
  3.888817E-01
  3.900690E-01
  3.919605E-01
  3.917054E-01
  3.918035E-01
  3.912917E-01
  3.930824E-01
  3.948558E-01
  3.974207E-01
  3.973302E-01
  3.964969E-01
  3.940884E-01
  3.938620E-01
  3.943979E-01
  3.969608E-01
  3.979491E-01
  3.985514E-01
  3.968416E-01
  3.955830E-01
  3.930374E-01
  3.912779E-01
  3.883499E-01
  3.869450E-01
  3.889191E-01
  3.894141E-01
  3.899842E-01
  3.935363E-01
  3.948977E-01
  3.966941E-01
  3.950893E-01
  3.947195E-01
  3.929902E-01
  3.942539E-01
  3.944434E-01
  3.962450E-01
  3.949236E-01
  3.941462E-01
  3.912067E-01
  3.913335E-01
  3.917145E-01
  3.956268E-01
  3.976352E-01
  3.996105E-01
  3.970658E-01
  3.947447E-01
  3.908565E-01
  3.908175E-01
  3.914476E-01
  3.956506E-01
  3.979336E-01
  4.003044E-01
  3.984715E-01
  3.972531E-01
  3.944533E-01
  3.944870E-01
  3.931537E-01
  3.935715E-01
  3.920922E-01
  3.929245E-01
  3.923259E-01
  3.933595E-01
  3.917210E-01
  3.913989E-01
  3.895676E-01
  3.906873E-01
  3.909851E-01
  3.933288E-01
  3.930527E-01
  3.937540E-01
  3.925515E-01
  3.941763E-01
  3.948614E-01
  3.970478E-01
  3.956188E-01
  3.944700E-01
  3.916534E-01
  3.927501E-01
  3.942208E-01
  3.981319E-01
  3.987457E-01
  3.992399E-01
  3.968935E-01
  3.967840E-01
  3.954190E-01
  3.957567E-01
  3.932611E-01
  3.918456E-01
  3.871460E-01
  3.894160E-01
  3.899034E-01
  3.931546E-01
  3.937457E-01
  3.961137E-01
  3.948129E-01
  3.950550E-01
  3.926727E-01
  3.934748E-01
  3.924675E-01
  3.938720E-01
  3.920308E-01
  3.921963E-01
  3.903270E-01
  3.921493E-01
  3.926369E-01
  3.961222E-01
  3.967799E-01
  3.988995E-01
  3.969440E-01
  3.959561E-01
  3.916479E-01
  3.903518E-01
  3.883941E-01
  3.912030E-01
  3.929329E-01
  3.967490E-01
  3.960772E-01
  3.957873E-01
  3.920622E-01
  3.914069E-01
  3.896549E-01
  3.917654E-01
  3.921646E-01
  3.949166E-01
  3.940362E-01
  3.940743E-01
  3.905881E-01
  3.898807E-01
  3.880516E-01
  3.901349E-01
  3.903123E-01
  3.926428E-01
  3.918919E-01
  3.935123E-01
  3.930396E-01
  3.954499E-01
  3.950540E-01
  3.960342E-01
  3.931302E-01
  3.920477E-01
  3.890252E-01
  3.900121E-01
  3.902093E-01
  3.939992E-01
  3.954595E-01
  3.987581E-01
  3.982551E-01
  3.986586E-01
  3.950434E-01
  3.931315E-01
  3.890006E-01
  3.885622E-01
  3.917016E-01
  3.923167E-01
  3.917772E-01
  3.938980E-01
  3.940549E-01
  3.952782E-01
  3.933089E-01
  3.926170E-01
  3.903020E-01
  3.909666E-01
  3.905997E-01
  3.923543E-01
  3.916022E-01
  3.921599E-01
  3.907083E-01
  3.919522E-01
  3.924495E-01
  3.959030E-01
  3.975345E-01
  4.000936E-01
  3.987372E-01
  3.974116E-01
  3.931808E-01
  3.914364E-01
  3.893796E-01
  3.911014E-01
  3.919799E-01
  3.947396E-01
  3.946260E-01
  3.955985E-01
  3.943473E-01
  3.951659E-01
  3.938684E-01
  3.939528E-01
  3.916363E-01
  3.915333E-01
  3.903468E-01
  3.919474E-01
  3.918555E-01
  3.933901E-01
  3.924611E-01
  3.932563E-01
  3.923107E-01
  3.937198E-01
  3.933318E-01
  3.946608E-01
  3.936308E-01
  3.942770E-01
  3.927183E-01
  3.926798E-01
  3.902285E-01
  3.898919E-01
  3.887702E-01
  3.912292E-01
  3.927418E-01
  3.958927E-01
  3.958249E-01
  3.965450E-01
  3.948547E-01
  3.952804E-01
  3.939858E-01
  3.946728E-01
  3.932019E-01
  3.934438E-01
  3.917961E-01
  3.930019E-01
  3.926736E-01
  3.930069E-01
  3.932680E-01
  3.945487E-01
  3.946270E-01
  3.944219E-01
  3.929256E-01
  3.921913E-01
  3.911172E-01
  3.909000E-01
  3.901678E-01
  3.907558E-01
  3.917130E-01
  3.940917E-01
  3.956269E-01
  3.971279E-01
  3.974710E-01
  3.984766E-01
  3.984762E-01
  3.978938E-01
  3.947623E-01
  3.911380E-01
  3.873336E-01
  3.862479E-01
  3.868583E-01
  3.894610E-01
  3.910114E-01
  3.918488E-01
  3.909173E-01
  3.907639E-01
  3.909165E-01
  3.926768E-01
  3.938469E-01
  3.949111E-01
  3.941579E-01
  3.933468E-01
  3.918925E-01
  3.917690E-01
  3.916219E-01
  3.923721E-01
  3.922562E-01
  3.926639E-01
  3.924825E-01
  3.931270E-01
  3.928871E-01
  3.927226E-01
  3.912133E-01
  3.902016E-01
  3.890529E-01
  3.896498E-01
  3.905266E-01
  3.923636E-01
  3.930538E-01
  3.937491E-01
  3.934006E-01
  3.936437E-01
  3.928488E-01
  3.919855E-01
  3.898930E-01
  3.889361E-01
  3.886931E-01
  3.904631E-01
  3.986267E-01
  3.971065E-01
  3.953467E-01
  3.934303E-01
  3.933261E-01
  3.930826E-01
  3.933813E-01
  3.925599E-01
  3.923029E-01
  3.914469E-01
  3.914194E-01
  3.907268E-01
  3.909672E-01
  3.910977E-01
  3.927280E-01
  3.941308E-01
  3.961464E-01
  3.969967E-01
  3.982155E-01
  3.984918E-01
  3.989416E-01
  3.975176E-01
  3.954289E-01
  3.918355E-01
  3.893090E-01
  3.874063E-01
  3.877981E-01
  3.885231E-01
  3.901337E-01
  3.907532E-01
  3.920299E-01
  3.929111E-01
  3.946069E-01
  3.948957E-01
  3.946453E-01
  3.928060E-01
  3.919218E-01
  3.914537E-01
  3.927706E-01
  3.935747E-01
  3.944325E-01
  3.938466E-01
  3.939380E-01
  3.938687E-01
  3.947718E-01
  3.942541E-01
  3.931584E-01
  3.905236E-01
  3.888978E-01
  3.877584E-01
  3.888107E-01
  3.904832E-01
  3.937013E-01
  3.960626E-01
  3.977256E-01
  3.964374E-01
  3.939607E-01
  3.901464E-01
  3.878163E-01
  3.864521E-01
  3.878116E-01
  3.902980E-01
  3.944277E-01
  3.972015E-01
  3.996403E-01
  3.985076E-01
  3.962572E-01
  3.927179E-01
  3.920214E-01
  3.918529E-01
  3.935774E-01
  3.937297E-01
  3.943274E-01
  3.930049E-01
  3.923097E-01
  3.901311E-01
  3.896820E-01
  3.895817E-01
  3.925254E-01
  3.950103E-01
  3.976570E-01
  3.971556E-01
  3.967773E-01
  3.955958E-01
  3.964942E-01
  3.959716E-01
  3.950475E-01
  3.910999E-01
  3.879330E-01
  3.850090E-01
  3.856208E-01
  3.866629E-01
  3.888598E-01
  3.886824E-01
  3.889877E-01
  3.888616E-01
  3.916433E-01
  3.942598E-01
  3.973727E-01
  3.971660E-01
  3.961096E-01
  3.930049E-01
  3.916410E-01
  3.902520E-01
  3.910845E-01
  3.912508E-01
  3.928468E-01
  3.932768E-01
  3.945758E-01
  3.937004E-01
  3.927559E-01
  3.898181E-01
  3.884690E-01
  3.874450E-01
  3.895792E-01
  3.919262E-01
  3.955354E-01
  3.964539E-01
  3.963323E-01
  3.932510E-01
  3.909848E-01
  3.881565E-01
  3.873146E-01
  3.858690E-01
  3.865756E-01
  3.878999E-01
  3.924333E-01
  3.963368E-01
  4.043602E-01
  4.010461E-01
  3.976748E-01
  3.933032E-01
  3.919989E-01
  3.904726E-01
  3.911155E-01
  3.904970E-01
  3.914984E-01
  3.908496E-01
  3.913212E-01
  3.898966E-01
  3.901316E-01
  3.896707E-01
  3.917635E-01
  3.928041E-01
  3.948772E-01
  3.944039E-01
  3.948027E-01
  3.937786E-01
  3.947053E-01
  3.940967E-01
  3.943015E-01
  3.920552E-01
  3.910190E-01
  3.891105E-01
  3.898642E-01
  3.898742E-01
  3.913538E-01
  3.909635E-01
  3.923716E-01
  3.932822E-01
  3.964412E-01
  3.973574E-01
  3.977936E-01
  3.948455E-01
  3.931099E-01
  3.909701E-01
  3.916894E-01
  3.914145E-01
  3.924626E-01
  3.919664E-01
  3.936668E-01
  3.945790E-01
  3.965889E-01
  3.951202E-01
  3.929853E-01
  3.886230E-01
  3.871137E-01
  3.865022E-01
  3.894939E-01
  3.919816E-01
  3.958104E-01
  3.968654E-01
  3.974858E-01
  3.945917E-01
  3.921224E-01
  3.883478E-01
  3.873972E-01
  3.868552E-01
  3.900085E-01
  3.936238E-01
  3.996002E-01
  4.027859E-01
  4.003135E-01
  3.981306E-01
  3.964320E-01
  3.921805E-01
  3.914976E-01
  3.898873E-01
  3.913530E-01
  3.904683E-01
  3.916358E-01
  3.901546E-01
  3.907026E-01
  3.886815E-01
  3.892873E-01
  3.885697E-01
  3.913841E-01
  3.920890E-01
  3.939215E-01
  3.916128E-01
  3.909598E-01
  3.890351E-01
  3.912877E-01
  3.920608E-01
  3.942642E-01
  3.922447E-01
  3.915115E-01
  3.890799E-01
  3.906744E-01
  3.910068E-01
  3.932225E-01
  3.917611E-01
  3.921689E-01
  3.913777E-01
  3.947368E-01
  3.963846E-01
  3.991348E-01
  3.972036E-01
  3.958606E-01
  3.917329E-01
  3.906577E-01
  3.884180E-01
  3.897219E-01
  3.897274E-01
  3.927901E-01
  3.935020E-01
  3.955596E-01
  3.934643E-01
  3.921433E-01
  3.880881E-01
  3.874593E-01
  3.864452E-01
  3.895608E-01
  3.911271E-01
  3.944676E-01
  3.938709E-01
  3.940998E-01
  3.915385E-01
  3.922044E-01
  3.917289E-01
  3.939572E-01
  3.931642E-01
  3.941591E-01
  3.933806E-01
  3.963795E-01
  3.977208E-01
  3.996901E-01
  3.960260E-01
  3.960743E-01
  3.922696E-01
  3.929331E-01
  3.896547E-01
  3.904390E-01
  3.873270E-01
  3.887598E-01
  3.867682E-01
  3.893711E-01
  3.882341E-01
  3.912618E-01
  3.901107E-01
  3.926614E-01
  3.904576E-01
  3.915467E-01
  3.881096E-01
  3.890864E-01
  3.871763E-01
  3.907210E-01
  3.909867E-01
  3.950091E-01
  3.938556E-01
  3.959194E-01
  3.938433E-01
  3.963315E-01
  3.948780E-01
  3.970429E-01
  3.946846E-01
  3.968859E-01
  3.960281E-01
  3.995233E-01
  3.975097E-01
  3.974069E-01
  3.920200E-01
  3.914919E-01
  3.887544E-01
  3.914795E-01
  3.903678E-01
  3.929879E-01
  3.916169E-01
  3.950047E-01
  3.946461E-01
  3.973873E-01
  3.938693E-01
  3.926540E-01
  3.872920E-01
  3.875987E-01
  3.859335E-01
  3.896932E-01
  3.897781E-01
  3.936864E-01
  3.930260E-01
  3.959811E-01
  3.945853E-01
  3.973663E-01
  3.962714E-01
  3.992323E-01
  3.976210E-01
  3.997193E-01
  3.977492E-01
  4.001546E-01
  3.982828E-01
  3.930428E-01
  3.916987E-01
  3.945315E-01
  3.917941E-01
  3.936874E-01
  3.907913E-01
  3.926539E-01
  3.893548E-01
  3.907073E-01
  3.875114E-01
  3.898142E-01
  3.880357E-01
  3.916583E-01
  3.907215E-01
  3.943897E-01
  3.921525E-01
  3.931598E-01
  3.881378E-01
  3.883087E-01
  3.856606E-01
  3.901922E-01
  3.909633E-01
  3.956602E-01
  3.935556E-01
  3.951562E-01
  3.923455E-01
  3.956179E-01
  3.944735E-01
  3.972740E-01
  3.938839E-01
  3.951058E-01
  3.924977E-01
  3.958625E-01
  3.943341E-01
  3.965844E-01
  3.928279E-01
  3.935217E-01
  3.896348E-01
  3.911372E-01
  3.885415E-01
  3.917486E-01
  3.910939E-01
  3.956927E-01
  3.947836E-01
  3.972351E-01
  3.932222E-01
  3.933121E-01
  3.888866E-01
  3.903323E-01