# vtk DataFile Version 2.0
title
ASCII
DATASET STRUCTURED_GRID
DIMENSIONS   64   64    1
POINTS   4096  float
  0.000000E+00  0.000000E+00  0.000000E+00
  0.000000E+00  3.906250E-01  0.000000E+00
  0.000000E+00  7.812500E-01  0.000000E+00
  0.000000E+00  1.171875E+00  0.000000E+00
  0.000000E+00  1.562500E+00  0.000000E+00
  0.000000E+00  1.953125E+00  0.000000E+00
  0.000000E+00  2.343750E+00  0.000000E+00
  0.000000E+00  2.734375E+00  0.000000E+00
  0.000000E+00  3.125000E+00  0.000000E+00
  0.000000E+00  3.515625E+00  0.000000E+00
  0.000000E+00  3.906250E+00  0.000000E+00
  0.000000E+00  4.296875E+00  0.000000E+00
  0.000000E+00  4.687500E+00  0.000000E+00
  0.000000E+00  5.078125E+00  0.000000E+00
  0.000000E+00  5.468750E+00  0.000000E+00
  0.000000E+00  5.859375E+00  0.000000E+00
  0.000000E+00  6.250000E+00  0.000000E+00
  0.000000E+00  6.640625E+00  0.000000E+00
  0.000000E+00  7.031250E+00  0.000000E+00
  0.000000E+00  7.421875E+00  0.000000E+00
  0.000000E+00  7.812500E+00  0.000000E+00
  0.000000E+00  8.203125E+00  0.000000E+00
  0.000000E+00  8.593750E+00  0.000000E+00
  0.000000E+00  8.984375E+00  0.000000E+00
  0.000000E+00  9.375000E+00  0.000000E+00
  0.000000E+00  9.765625E+00  0.000000E+00
  0.000000E+00  1.015625E+01  0.000000E+00
  0.000000E+00  1.054688E+01  0.000000E+00
  0.000000E+00  1.093750E+01  0.000000E+00
  0.000000E+00  1.132812E+01  0.000000E+00
  0.000000E+00  1.171875E+01  0.000000E+00
  0.000000E+00  1.210938E+01  0.000000E+00
  0.000000E+00  1.250000E+01  0.000000E+00
  0.000000E+00  1.289062E+01  0.000000E+00
  0.000000E+00  1.328125E+01  0.000000E+00
  0.000000E+00  1.367188E+01  0.000000E+00
  0.000000E+00  1.406250E+01  0.000000E+00
  0.000000E+00  1.445312E+01  0.000000E+00
  0.000000E+00  1.484375E+01  0.000000E+00
  0.000000E+00  1.523438E+01  0.000000E+00
  0.000000E+00  1.562500E+01  0.000000E+00
  0.000000E+00  1.601562E+01  0.000000E+00
  0.000000E+00  1.640625E+01  0.000000E+00
  0.000000E+00  1.679688E+01  0.000000E+00
  0.000000E+00  1.718750E+01  0.000000E+00
  0.000000E+00  1.757812E+01  0.000000E+00
  0.000000E+00  1.796875E+01  0.000000E+00
  0.000000E+00  1.835938E+01  0.000000E+00
  0.000000E+00  1.875000E+01  0.000000E+00
  0.000000E+00  1.914062E+01  0.000000E+00
  0.000000E+00  1.953125E+01  0.000000E+00
  0.000000E+00  1.992188E+01  0.000000E+00
  0.000000E+00  2.031250E+01  0.000000E+00
  0.000000E+00  2.070312E+01  0.000000E+00
  0.000000E+00  2.109375E+01  0.000000E+00
  0.000000E+00  2.148438E+01  0.000000E+00
  0.000000E+00  2.187500E+01  0.000000E+00
  0.000000E+00  2.226562E+01  0.000000E+00
  0.000000E+00  2.265625E+01  0.000000E+00
  0.000000E+00  2.304688E+01  0.000000E+00
  0.000000E+00  2.343750E+01  0.000000E+00
  0.000000E+00  2.382812E+01  0.000000E+00
  0.000000E+00  2.421875E+01  0.000000E+00
  0.000000E+00  2.460938E+01  0.000000E+00
  3.906250E-01  0.000000E+00  0.000000E+00
  3.906250E-01  3.906250E-01  0.000000E+00
  3.906250E-01  7.812500E-01  0.000000E+00
  3.906250E-01  1.171875E+00  0.000000E+00
  3.906250E-01  1.562500E+00  0.000000E+00
  3.906250E-01  1.953125E+00  0.000000E+00
  3.906250E-01  2.343750E+00  0.000000E+00
  3.906250E-01  2.734375E+00  0.000000E+00
  3.906250E-01  3.125000E+00  0.000000E+00
  3.906250E-01  3.515625E+00  0.000000E+00
  3.906250E-01  3.906250E+00  0.000000E+00
  3.906250E-01  4.296875E+00  0.000000E+00
  3.906250E-01  4.687500E+00  0.000000E+00
  3.906250E-01  5.078125E+00  0.000000E+00
  3.906250E-01  5.468750E+00  0.000000E+00
  3.906250E-01  5.859375E+00  0.000000E+00
  3.906250E-01  6.250000E+00  0.000000E+00
  3.906250E-01  6.640625E+00  0.000000E+00
  3.906250E-01  7.031250E+00  0.000000E+00
  3.906250E-01  7.421875E+00  0.000000E+00
  3.906250E-01  7.812500E+00  0.000000E+00
  3.906250E-01  8.203125E+00  0.000000E+00
  3.906250E-01  8.593750E+00  0.000000E+00
  3.906250E-01  8.984375E+00  0.000000E+00
  3.906250E-01  9.375000E+00  0.000000E+00
  3.906250E-01  9.765625E+00  0.000000E+00
  3.906250E-01  1.015625E+01  0.000000E+00
  3.906250E-01  1.054688E+01  0.000000E+00
  3.906250E-01  1.093750E+01  0.000000E+00
  3.906250E-01  1.132812E+01  0.000000E+00
  3.906250E-01  1.171875E+01  0.000000E+00
  3.906250E-01  1.210938E+01  0.000000E+00
  3.906250E-01  1.250000E+01  0.000000E+00
  3.906250E-01  1.289062E+01  0.000000E+00
  3.906250E-01  1.328125E+01  0.000000E+00
  3.906250E-01  1.367188E+01  0.000000E+00
  3.906250E-01  1.406250E+01  0.000000E+00
  3.906250E-01  1.445312E+01  0.000000E+00
  3.906250E-01  1.484375E+01  0.000000E+00
  3.906250E-01  1.523438E+01  0.000000E+00
  3.906250E-01  1.562500E+01  0.000000E+00
  3.906250E-01  1.601562E+01  0.000000E+00
  3.906250E-01  1.640625E+01  0.000000E+00
  3.906250E-01  1.679688E+01  0.000000E+00
  3.906250E-01  1.718750E+01  0.000000E+00
  3.906250E-01  1.757812E+01  0.000000E+00
  3.906250E-01  1.796875E+01  0.000000E+00
  3.906250E-01  1.835938E+01  0.000000E+00
  3.906250E-01  1.875000E+01  0.000000E+00
  3.906250E-01  1.914062E+01  0.000000E+00
  3.906250E-01  1.953125E+01  0.000000E+00
  3.906250E-01  1.992188E+01  0.000000E+00
  3.906250E-01  2.031250E+01  0.000000E+00
  3.906250E-01  2.070312E+01  0.000000E+00
  3.906250E-01  2.109375E+01  0.000000E+00
  3.906250E-01  2.148438E+01  0.000000E+00
  3.906250E-01  2.187500E+01  0.000000E+00
  3.906250E-01  2.226562E+01  0.000000E+00
  3.906250E-01  2.265625E+01  0.000000E+00
  3.906250E-01  2.304688E+01  0.000000E+00
  3.906250E-01  2.343750E+01  0.000000E+00
  3.906250E-01  2.382812E+01  0.000000E+00
  3.906250E-01  2.421875E+01  0.000000E+00
  3.906250E-01  2.460938E+01  0.000000E+00
  7.812500E-01  0.000000E+00  0.000000E+00
  7.812500E-01  3.906250E-01  0.000000E+00
  7.812500E-01  7.812500E-01  0.000000E+00
  7.812500E-01  1.171875E+00  0.000000E+00
  7.812500E-01  1.562500E+00  0.000000E+00
  7.812500E-01  1.953125E+00  0.000000E+00
  7.812500E-01  2.343750E+00  0.000000E+00
  7.812500E-01  2.734375E+00  0.000000E+00
  7.812500E-01  3.125000E+00  0.000000E+00
  7.812500E-01  3.515625E+00  0.000000E+00
  7.812500E-01  3.906250E+00  0.000000E+00
  7.812500E-01  4.296875E+00  0.000000E+00
  7.812500E-01  4.687500E+00  0.000000E+00
  7.812500E-01  5.078125E+00  0.000000E+00
  7.812500E-01  5.468750E+00  0.000000E+00
  7.812500E-01  5.859375E+00  0.000000E+00
  7.812500E-01  6.250000E+00  0.000000E+00
  7.812500E-01  6.640625E+00  0.000000E+00
  7.812500E-01  7.031250E+00  0.000000E+00
  7.812500E-01  7.421875E+00  0.000000E+00
  7.812500E-01  7.812500E+00  0.000000E+00
  7.812500E-01  8.203125E+00  0.000000E+00
  7.812500E-01  8.593750E+00  0.000000E+00
  7.812500E-01  8.984375E+00  0.000000E+00
  7.812500E-01  9.375000E+00  0.000000E+00
  7.812500E-01  9.765625E+00  0.000000E+00
  7.812500E-01  1.015625E+01  0.000000E+00
  7.812500E-01  1.054688E+01  0.000000E+00
  7.812500E-01  1.093750E+01  0.000000E+00
  7.812500E-01  1.132812E+01  0.000000E+00
  7.812500E-01  1.171875E+01  0.000000E+00
  7.812500E-01  1.210938E+01  0.000000E+00
  7.812500E-01  1.250000E+01  0.000000E+00
  7.812500E-01  1.289062E+01  0.000000E+00
  7.812500E-01  1.328125E+01  0.000000E+00
  7.812500E-01  1.367188E+01  0.000000E+00
  7.812500E-01  1.406250E+01  0.000000E+00
  7.812500E-01  1.445312E+01  0.000000E+00
  7.812500E-01  1.484375E+01  0.000000E+00
  7.812500E-01  1.523438E+01  0.000000E+00
  7.812500E-01  1.562500E+01  0.000000E+00
  7.812500E-01  1.601562E+01  0.000000E+00
  7.812500E-01  1.640625E+01  0.000000E+00
  7.812500E-01  1.679688E+01  0.000000E+00
  7.812500E-01  1.718750E+01  0.000000E+00
  7.812500E-01  1.757812E+01  0.000000E+00
  7.812500E-01  1.796875E+01  0.000000E+00
  7.812500E-01  1.835938E+01  0.000000E+00
  7.812500E-01  1.875000E+01  0.000000E+00
  7.812500E-01  1.914062E+01  0.000000E+00
  7.812500E-01  1.953125E+01  0.000000E+00
  7.812500E-01  1.992188E+01  0.000000E+00
  7.812500E-01  2.031250E+01  0.000000E+00
  7.812500E-01  2.070312E+01  0.000000E+00
  7.812500E-01  2.109375E+01  0.000000E+00
  7.812500E-01  2.148438E+01  0.000000E+00
  7.812500E-01  2.187500E+01  0.000000E+00
  7.812500E-01  2.226562E+01  0.000000E+00
  7.812500E-01  2.265625E+01  0.000000E+00
  7.812500E-01  2.304688E+01  0.000000E+00
  7.812500E-01  2.343750E+01  0.000000E+00
  7.812500E-01  2.382812E+01  0.000000E+00
  7.812500E-01  2.421875E+01  0.000000E+00
  7.812500E-01  2.460938E+01  0.000000E+00
  1.171875E+00  0.000000E+00  0.000000E+00
  1.171875E+00  3.906250E-01  0.000000E+00
  1.171875E+00  7.812500E-01  0.000000E+00
  1.171875E+00  1.171875E+00  0.000000E+00
  1.171875E+00  1.562500E+00  0.000000E+00
  1.171875E+00  1.953125E+00  0.000000E+00
  1.171875E+00  2.343750E+00  0.000000E+00
  1.171875E+00  2.734375E+00  0.000000E+00
  1.171875E+00  3.125000E+00  0.000000E+00
  1.171875E+00  3.515625E+00  0.000000E+00
  1.171875E+00  3.906250E+00  0.000000E+00
  1.171875E+00  4.296875E+00  0.000000E+00
  1.171875E+00  4.687500E+00  0.000000E+00
  1.171875E+00  5.078125E+00  0.000000E+00
  1.171875E+00  5.468750E+00  0.000000E+00
  1.171875E+00  5.859375E+00  0.000000E+00
  1.171875E+00  6.250000E+00  0.000000E+00
  1.171875E+00  6.640625E+00  0.000000E+00
  1.171875E+00  7.031250E+00  0.000000E+00
  1.171875E+00  7.421875E+00  0.000000E+00
  1.171875E+00  7.812500E+00  0.000000E+00
  1.171875E+00  8.203125E+00  0.000000E+00
  1.171875E+00  8.593750E+00  0.000000E+00
  1.171875E+00  8.984375E+00  0.000000E+00
  1.171875E+00  9.375000E+00  0.000000E+00
  1.171875E+00  9.765625E+00  0.000000E+00
  1.171875E+00  1.015625E+01  0.000000E+00
  1.171875E+00  1.054688E+01  0.000000E+00
  1.171875E+00  1.093750E+01  0.000000E+00
  1.171875E+00  1.132812E+01  0.000000E+00
  1.171875E+00  1.171875E+01  0.000000E+00
  1.171875E+00  1.210938E+01  0.000000E+00
  1.171875E+00  1.250000E+01  0.000000E+00
  1.171875E+00  1.289062E+01  0.000000E+00
  1.171875E+00  1.328125E+01  0.000000E+00
  1.171875E+00  1.367188E+01  0.000000E+00
  1.171875E+00  1.406250E+01  0.000000E+00
  1.171875E+00  1.445312E+01  0.000000E+00
[...]
POINT_DATA   4096
SCALARS CON  float  1
LOOKUP_TABLE default
  4.665045E-01
  4.626512E-01
  4.663391E-01
  4.680013E-01
  4.702017E-01
  4.616043E-01
  4.578278E-01
  4.575995E-01
  4.685415E-01
  4.701624E-01
  4.676356E-01
  4.605745E-01
  4.634510E-01
  4.618577E-01
  4.636089E-01
  4.602889E-01
  4.616517E-01
  4.624803E-01
  4.683714E-01
  4.650086E-01
  4.645850E-01
  4.599604E-01
  4.613372E-01
  4.579195E-01
  4.583893E-01
  4.578091E-01
  4.613169E-01
  4.569506E-01
  4.613575E-01
  4.658444E-01
  4.715285E-01
  4.654569E-01
  4.600784E-01
  4.552416E-01
  4.648516E-01
  4.689795E-01
  4.670033E-01
  4.587816E-01
  4.615913E-01
  4.582436E-01
  4.568321E-01
  4.580551E-01
  4.648081E-01
  4.575613E-01
  4.578372E-01
  4.626377E-01
  4.654108E-01
  4.543062E-01
  4.572514E-01
  4.683282E-01
  4.735044E-01
  4.590158E-01
  4.576980E-01
  4.607470E-01
  4.638019E-01
  4.644426E-01
  4.749044E-01
  4.767688E-01
  4.757005E-01
  4.687510E-01
  4.711267E-01
  4.685289E-01
  4.686592E-01
  4.654373E-01
  4.656560E-01
  4.637677E-01
  4.698901E-01
  4.757858E-01
  4.794563E-01
  4.694036E-01
  4.598920E-01
  4.571445E-01
  4.680072E-01
  4.685611E-01
  4.630367E-01
  4.573098E-01
  4.628600E-01
  4.656584E-01
  4.669798E-01
  4.616883E-01
  4.616476E-01
  4.638456E-01
  4.723725E-01
  4.737770E-01
  4.716831E-01
  4.614580E-01
  4.560716E-01
  4.534544E-01
  4.595895E-01
  4.630056E-01
  4.659018E-01
  4.614884E-01
  4.629929E-01
  4.659990E-01
  4.701269E-01
  4.639768E-01
  4.596581E-01
  4.580611E-01
  4.653968E-01
  4.650038E-01
  4.621567E-01
  4.590317E-01
  4.620825E-01
  4.581835E-01
  4.582590E-01
  4.580379E-01
  4.585734E-01
  4.525004E-01
  4.524613E-01
  4.547591E-01
  4.606053E-01
  4.577069E-01
  4.644026E-01
  4.774193E-01
  4.806273E-01
  4.638381E-01
  4.587395E-01
  4.600850E-01
  4.632585E-01
  4.656816E-01
  4.732721E-01
  4.724057E-01
  4.707350E-01
  4.639016E-01
  4.622294E-01
  4.616522E-01
  4.673504E-01
  4.663635E-01
  4.583311E-01
  4.622775E-01
  4.711945E-01
  4.784559E-01
  4.756953E-01
  4.644868E-01
  4.609976E-01
  4.619339E-01
  4.660572E-01
  4.645902E-01
  4.624843E-01
  4.631422E-01
  4.664400E-01
  4.667347E-01
  4.683545E-01
  4.646299E-01
  4.632083E-01
  4.657494E-01
  4.698082E-01
  4.697891E-01
  4.693639E-01
  4.646689E-01
  4.601288E-01
  4.568375E-01
  4.597184E-01
  4.613348E-01
  4.610461E-01
  4.575170E-01
  4.601367E-01
  4.639627E-01
  4.634280E-01
  4.578320E-01
  4.569156E-01
  4.595197E-01
  4.659408E-01
  4.661264E-01
  4.637856E-01
  4.624153E-01
  4.643924E-01
  4.610329E-01
  4.592948E-01
  4.595418E-01
  4.580773E-01
  4.519422E-01
  4.503937E-01
  4.534100E-01
  4.622397E-01
  4.667924E-01
  4.732118E-01
  4.800470E-01
  4.768681E-01
  4.624280E-01
  4.592892E-01
  4.625154E-01
  4.648148E-01
  4.665471E-01
  4.712598E-01
  4.731003E-01
  4.728481E-01
  4.633838E-01
  4.552188E-01
  4.550345E-01
  4.593654E-01
  4.573125E-01
  4.564161E-01
  4.603058E-01
  4.721567E-01
  4.802133E-01
  4.689430E-01
  4.549113E-01
  4.554029E-01
  4.593547E-01
  4.618749E-01
  4.632110E-01
  4.643937E-01
  4.671532E-01
  4.704281E-01
  4.698018E-01
  4.651400E-01
  4.605444E-01
  4.621379E-01
  4.658548E-01
  4.663741E-01
  4.645674E-01
  4.638678E-01
  4.645087E-01
  4.644952E-01
  4.649532E-01
  4.676910E-01
  4.655798E-01
  4.608041E-01
  4.587118E-01
  4.581149E-01
  4.582050E-01
  4.606164E-01
  4.619027E-01
  4.626364E-01
  4.649418E-01
  4.645625E-01
  4.599112E-01
  4.601823E-01
  4.630343E-01
  4.618294E-01
  4.629861E-01
  4.686747E-01
  4.646001E-01
  4.556428E-01
  4.569384E-01
  4.601401E-01
  4.584572E-01
  4.617376E-01
  4.649896E-01
  4.666753E-01
  4.697599E-01
  4.673330E-01
  4.591603E-01
  4.569008E-01
  4.629712E-01
  4.715559E-01
  4.755395E-01
  4.754126E-01
  4.751560E-01
  4.736652E-01
  4.646797E-01
  4.557445E-01
  4.574620E-01
  4.615946E-01
  4.585042E-01
  4.551751E-01
  4.640147E-01
  4.695626E-01
  4.768957E-01
  4.639863E-01
  4.556661E-01
  4.582054E-01
  4.636574E-01
  4.595910E-01
  4.630005E-01
  4.650219E-01
  4.701173E-01
  4.669929E-01
  4.660912E-01
  4.629053E-01
  4.649875E-01
  4.649730E-01
  4.697549E-01
  4.664171E-01
  4.642242E-01
  4.606536E-01
  4.669071E-01
  4.678546E-01
  4.682904E-01
  4.649345E-01
  4.659609E-01
  4.611758E-01
  4.609684E-01
  4.570133E-01
  4.569329E-01
  4.567383E-01
  4.640832E-01
  4.625781E-01
  4.625804E-01
  4.615007E-01
  4.658966E-01
  4.637245E-01
  4.612147E-01
  4.549607E-01
  4.610253E-01
  4.656894E-01
  4.645863E-01
  4.555628E-01
  4.604611E-01
  4.634997E-01
  4.658048E-01
  4.636064E-01
  4.623694E-01
  4.560634E-01
  4.605973E-01
  4.621461E-01
  4.621255E-01
  4.569798E-01
  4.615211E-01
  4.653246E-01
  4.686878E-01
  4.655238E-01
  4.711590E-01
  4.699652E-01
  4.641001E-01
  4.556374E-01
  4.584634E-01
  4.535297E-01
  4.518492E-01
  4.619839E-01
  4.703287E-01
  4.649540E-01
  4.724338E-01
  4.641273E-01
  4.621630E-01
  4.549256E-01
  4.565246E-01
  4.516589E-01
  4.615123E-01
  4.599638E-01
  4.650404E-01
  4.624662E-01
  4.690248E-01
  4.626657E-01
  4.658433E-01
  4.609590E-01
  4.672603E-01
  4.666510E-01
  4.725611E-01
  4.642326E-01
  4.683323E-01
  4.632406E-01
  4.631730E-01
  4.555575E-01
  4.619519E-01
  4.601841E-01
  4.672214E-01
  4.594565E-01
  4.584123E-01
  4.584833E-01
  4.747176E-01
  4.691931E-01
  4.635780E-01
  4.546116E-01
  4.628988E-01
  4.602997E-01
  4.621671E-01
  4.555003E-01
  4.662624E-01
  4.675856E-01
  4.631837E-01
  4.479988E-01
  4.617082E-01
  4.707021E-01
  4.782659E-01
  4.701862E-01
  4.652822E-01
  4.507930E-01
  4.595613E-01
  4.640820E-01
  4.674802E-01
  4.552384E-01
  4.594608E-01
  4.605015E-01
  4.655968E-01
  4.587135E-01
  4.659657E-01
  4.606485E-01
  4.623377E-01
  4.597038E-01
  4.664885E-01
  4.564226E-01
  4.589100E-01
  4.656854E-01
  4.692846E-01
  4.626327E-01
  4.646237E-01
  4.612999E-01
  4.587535E-01
  4.554635E-01
  4.553744E-01
  4.521274E-01
  4.586020E-01
  4.609878E-01
  4.639745E-01
  4.622171E-01
  4.627971E-01
  4.598464E-01
  4.617853E-01
  4.585314E-01
  4.621942E-01
  4.662092E-01
  4.709803E-01
  4.658089E-01
  4.663385E-01
  4.636225E-01
  4.564150E-01
  4.448499E-01
  4.490413E-01
  4.548288E-01
  4.625798E-01
  4.619955E-01
  4.585633E-01
  4.570972E-01
  4.714119E-01
  4.715683E-01
  4.605116E-01
  4.532709E-01
  4.634886E-01
  4.670867E-01
  4.666170E-01
  4.630672E-01
  4.663431E-01
  4.631017E-01
  4.582969E-01
  4.509634E-01
  4.582470E-01
  4.669668E-01
  4.752034E-01
  4.738485E-01
  4.681101E-01
  4.551384E-01
  4.588640E-01
  4.644695E-01
  4.640853E-01
  4.574745E-01
  4.604607E-01
  4.589850E-01
  4.566724E-01
  4.543940E-01
  4.623385E-01
  4.609285E-01
  4.636866E-01
  4.678718E-01
  4.690056E-01
  4.592727E-01
  4.601456E-01
  4.657436E-01
  4.607285E-01
  4.614958E-01
  4.626936E-01
  4.633692E-01
  4.605895E-01
  4.637277E-01
  4.626018E-01
  4.604994E-01
  4.593505E-01
  4.632331E-01
  4.635976E-01
  4.662297E-01
  4.617618E-01
  4.578018E-01
  4.588555E-01
  4.650041E-01
  4.675623E-01
  4.730181E-01
  4.728286E-01
  4.685372E-01
  4.640424E-01
  4.676659E-01
  4.623771E-01
  4.540884E-01
  4.507105E-01
  4.562294E-01
  4.631075E-01
  4.688778E-01
  4.614238E-01
  4.617390E-01
  4.723354E-01
  4.770968E-01
  4.652946E-01
  4.582177E-01
  4.598759E-01
  4.689669E-01
  4.703200E-01
  4.670228E-01
  4.646514E-01
  4.694852E-01
  4.646184E-01
  4.579935E-01
  4.591977E-01
  4.680223E-01
  4.688094E-01
  4.712489E-01
  4.684720E-01
  4.616828E-01
  4.598243E-01
  4.646070E-01
  4.605217E-01
  4.601399E-01
  4.626228E-01
  4.654642E-01
  4.608503E-01
  4.599564E-01
  4.586546E-01
  4.577256E-01
  4.629598E-01
  4.740227E-01
  4.713941E-01
  4.695060E-01
  4.679173E-01
  4.546269E-01
  4.544594E-01
  4.582817E-01
  4.656137E-01
  4.648310E-01
  4.684255E-01
  4.729330E-01
  4.749376E-01
  4.652415E-01
  4.624687E-01
  4.642779E-01
  4.690802E-01
  4.653487E-01
  4.614353E-01
  4.602785E-01
  4.702709E-01
  4.747795E-01
  4.776170E-01
  4.755007E-01
  4.749694E-01
  4.664387E-01
  4.631564E-01
  4.663181E-01
  4.688708E-01
  4.599567E-01
  4.589560E-01
  4.582757E-01
  4.637582E-01
  4.676859E-01
  4.655569E-01
  4.602878E-01
  4.689121E-01
  4.711743E-01
  4.682882E-01
  4.641108E-01
  4.691967E-01
  4.718747E-01
  4.714531E-01
  4.634307E-01
  4.627664E-01
  4.637383E-01
  4.672763E-01
  4.628209E-01
  4.608903E-01
  4.603832E-01
  4.634975E-01
  4.648347E-01
  4.698479E-01
  4.649887E-01
  4.649880E-01
  4.648806E-01
  4.642320E-01
  4.609389E-01
  4.630021E-01
  4.624345E-01
  4.661305E-01
  4.655976E-01
  4.645309E-01
  4.576030E-01
  4.610536E-01
  4.626753E-01
  4.597334E-01
  4.572649E-01
  4.603982E-01
  4.563005E-01
  4.545554E-01
  4.601764E-01
  4.703494E-01
  4.674859E-01
  4.669513E-01
  4.642946E-01
  4.664179E-01
  4.643170E-01
  4.671174E-01
  4.667879E-01
  4.691976E-01
  4.655818E-01
  4.659911E-01
  4.637214E-01
  4.685056E-01
  4.660414E-01
  4.657393E-01
  4.666215E-01
  4.733184E-01
  4.653467E-01
  4.582077E-01
  4.576598E-01
  4.649251E-01
  4.642446E-01
  4.679210E-01
  4.653580E-01
  4.670303E-01
  4.651300E-01
  4.641795E-01
  4.624329E-01
  4.697954E-01
  4.700482E-01
  4.709878E-01
  4.653335E-01
  4.662679E-01
  4.671094E-01
  4.676359E-01
  4.593991E-01
  4.616143E-01
  4.625803E-01
  4.640575E-01
  4.608054E-01
  4.634882E-01
  4.612710E-01
  4.599558E-01
  4.559057E-01
  4.598338E-01
  4.583985E-01
  4.645999E-01
  4.687027E-01
  4.703468E-01
  4.619715E-01
  4.599354E-01
  4.625991E-01
  4.744752E-01
  4.744820E-01
  4.693321E-01
  4.586657E-01
  4.587913E-01
  4.556129E-01
  4.547532E-01
  4.571850E-01
  4.641421E-01
  4.577402E-01
  4.554419E-01
  4.617447E-01
  4.673209E-01
  4.647821E-01
  4.589631E-01
  4.605830E-01
  4.639108E-01
  4.667966E-01
  4.659744E-01
  4.669849E-01
  4.670816E-01
  4.649265E-01
  4.615923E-01
  4.633062E-01
  4.621636E-01
  4.574234E-01
  4.539787E-01
  4.598383E-01
  4.658978E-01
  4.647238E-01
  4.584830E-01
  4.586226E-01
  4.582234E-01
  4.590212E-01
  4.630501E-01
  4.667888E-01
  4.647637E-01
  4.646383E-01
  4.620306E-01
  4.585146E-01
  4.569532E-01
  4.602281E-01
  4.615251E-01
  4.623600E-01
  4.654137E-01
  4.702776E-01
  4.651288E-01
  4.597340E-01
  4.576939E-01
  4.540284E-01
  4.542410E-01
  4.648663E-01
  4.668527E-01
  4.624549E-01
  4.577465E-01
  4.546792E-01
  4.538753E-01
  4.588346E-01
  4.646650E-01
  4.699689E-01
  4.681529E-01
  4.648221E-01
  4.607968E-01
  4.627626E-01
  4.688394E-01
  4.722306E-01
  4.686212E-01
  4.646556E-01
  4.615717E-01
  4.624090E-01
  4.606861E-01
  4.598880E-01
  4.591877E-01
  4.596066E-01
  4.570293E-01
  4.584129E-01
  4.629657E-01
  4.629923E-01
  4.618922E-01
  4.647387E-01
  4.656974E-01
  4.644899E-01
  4.623729E-01
  4.608538E-01
  4.620970E-01
  4.652773E-01
  4.647307E-01
  4.607458E-01
  4.587767E-01
  4.590226E-01
  4.608414E-01
  4.675925E-01
  4.721298E-01
  4.688958E-01
  4.640030E-01
  4.622130E-01
  4.605965E-01
  4.603063E-01
  4.632589E-01
  4.694061E-01
  4.724524E-01
  4.699757E-01
  4.652067E-01
  4.614252E-01
  4.595496E-01
  4.603695E-01
  4.603556E-01
  4.580651E-01
  4.582237E-01
  4.636678E-01
  4.655335E-01
  4.633877E-01
  4.623407E-01
  4.571389E-01
  4.526406E-01
  4.610901E-01
  4.700821E-01
  4.702090E-01
  4.663694E-01
  4.616431E-01
  4.605708E-01
  4.662046E-01
  4.708519E-01
  4.685252E-01
  4.620364E-01
  4.602466E-01
  4.624816E-01
  4.652726E-01
  4.679715E-01
  4.689733E-01
  4.668072E-01
  4.630294E-01
  4.624816E-01
  4.693902E-01
  4.734799E-01
  4.678035E-01
  4.615307E-01
  4.592922E-01
  4.618102E-01
  4.563060E-01
  4.602043E-01
  4.607733E-01
  4.661595E-01
  4.709954E-01
  4.692068E-01
  4.586394E-01
  4.602219E-01
  4.620349E-01
  4.662132E-01
  4.646276E-01
  4.620285E-01
  4.578615E-01
  4.639819E-01
  4.674280E-01
  4.720650E-01
  4.728282E-01
  4.740373E-01
  4.682551E-01
  4.668090E-01
  4.629833E-01
  4.608025E-01
  4.542527E-01
  4.574222E-01
  4.648584E-01
  4.714752E-01
  4.680637E-01
  4.672744E-01
  4.615265E-01
  4.622524E-01
  4.618513E-01
  4.623141E-01
  4.606265E-01
  4.642831E-01
  4.633308E-01
  4.643023E-01
  4.622160E-01
  4.632803E-01
  4.555343E-01
  4.543779E-01
  4.589444E-01
  4.633941E-01
  4.608047E-01
  4.666928E-01
  4.673195E-01
  4.685520E-01
  4.692031E-01
  4.715131E-01
  4.635908E-01
  4.579641E-01
  4.558327E-01
  4.601365E-01
  4.573767E-01
  4.589820E-01
  4.616548E-01
  4.682044E-01
  4.658875E-01
  4.646081E-01
  4.656394E-01
  4.687972E-01
  4.575114E-01
  4.543617E-01
  4.648685E-01
  4.662124E-01
  4.619555E-01
  4.671472E-01
  4.659614E-01
  4.657995E-01
  4.635662E-01
  4.587754E-01
  4.523809E-01
  4.602922E-01
  4.639207E-01
  4.651246E-01
  4.635049E-01
  4.623498E-01
  4.564788E-01
  4.615288E-01
  4.658985E-01
  4.690905E-01
  4.680430E-01
  4.703416E-01
  4.666103E-01
  4.647986E-01
  4.606393E-01
  4.609504E-01
  4.562694E-01
  4.566426E-01
  4.604600E-01
  4.661172E-01
  4.627654E-01
  4.631912E-01
  4.615829E-01
  4.664195E-01
  4.686119E-01
  4.685646E-01
  4.631751E-01
  4.623548E-01
  4.599692E-01
  4.619126E-01
  4.595282E-01
  4.639214E-01
  4.651546E-01
  4.642042E-01
  4.599724E-01
  4.596821E-01
  4.560176E-01
  4.619021E-01
  4.649829E-01
  4.642404E-01
  4.608426E-01
  4.636036E-01
  4.594805E-01
  4.583135E-01
  4.572321E-01
  4.599317E-01
  4.580276E-01
  4.606455E-01
  4.618949E-01
  4.659670E-01
  4.658787E-01
  4.677814E-01
  4.650730E-01
  4.647839E-01
  4.579135E-01
  4.597158E-01
  4.624498E-01
  4.636103E-01
  4.617320E-01
  4.655649E-01
  4.650789E-01
  4.635139E-01
  4.631296E-01
  4.617753E-01
  4.589162E-01
  4.616217E-01
  4.616554E-01
  4.608135E-01
  4.598820E-01
  4.594896E-01
  4.586009E-01
  4.608473E-01
  4.621583E-01
  4.620366E-01
  4.590353E-01
  4.609930E-01
  4.644542E-01
  4.659555E-01
  4.637286E-01
  4.629713E-01
  4.602075E-01
  4.580182E-01
  4.549861E-01
  4.551417E-01
  4.592967E-01
  4.636375E-01
  4.599568E-01
  4.612052E-01
  4.656855E-01
  4.645571E-01
  4.607418E-01
  4.634800E-01
  4.646715E-01
  4.623986E-01
  4.589237E-01
  4.619189E-01
  4.643847E-01
  4.666870E-01
  4.674929E-01
  4.629818E-01
  4.550680E-01
  4.587907E-01
  4.638108E-01
  4.606354E-01
  4.567349E-01
  4.583601E-01
  4.557197E-01
  4.566457E-01
  4.624252E-01
  4.667230E-01
  4.644147E-01
  4.632440E-01
  4.622747E-01
  4.634290E-01
  4.661671E-01
  4.677952E-01
  4.619391E-01
  4.575512E-01
  4.540690E-01
  4.565863E-01
  4.673260E-01
  4.624585E-01
  4.592028E-01
  4.581290E-01
  4.614076E-01
  4.629932E-01
  4.649604E-01
  4.645684E-01
  4.669262E-01
  4.624470E-01
  4.570571E-01
  4.551789E-01
  4.609685E-01
  4.629008E-01
  4.633464E-01
  4.626799E-01
  4.654587E-01
  4.614522E-01
  4.590880E-01
  4.629357E-01
  4.712020E-01
  4.703681E-01
  4.659960E-01
  4.623886E-01
  4.662253E-01
  4.629116E-01
  4.543640E-01
  4.519360E-01
  4.622818E-01
  4.657290E-01
  4.632018E-01
  4.610821E-01
  4.654187E-01
  4.625754E-01
  4.573481E-01
  4.564128E-01
  4.634729E-01
  4.625588E-01
  4.585420E-01
  4.610103E-01
  4.687226E-01
  4.655356E-01
  4.645192E-01
  4.642252E-01
  4.631798E-01
  4.631137E-01
  4.663884E-01
  4.599295E-01
  4.572205E-01
  4.584127E-01
  4.579409E-01
  4.558532E-01
  4.626830E-01
  4.684755E-01
  4.726064E-01
  4.704554E-01
  4.663801E-01
  4.585220E-01
  4.579144E-01
  4.584555E-01
  4.572059E-01
  4.563293E-01
  4.625763E-01
  4.655056E-01
  4.728932E-01
  4.690044E-01
  4.639718E-01
  4.578083E-01
  4.599209E-01
  4.610789E-01
  4.654962E-01
  4.662331E-01
  4.687662E-01
  4.615052E-01
  4.592200E-01
  4.610320E-01
  4.624520E-01
  4.569686E-01
  4.631962E-01
  4.705596E-01
  4.766232E-01
  4.692029E-01
  4.633182E-01
  4.637130E-01
  4.722611E-01
  4.717332E-01
  4.661308E-01
  4.558345E-01
  4.583000E-01
  4.592255E-01
  4.549767E-01
  4.516801E-01
  4.630050E-01
  4.629784E-01
  4.547246E-01
  4.499221E-01
  4.594492E-01
  4.632125E-01
  4.649476E-01
  4.655249E-01
  4.699850E-01
  4.625985E-01
  4.572642E-01
  4.581220E-01
  4.629488E-01
  4.587741E-01
  4.607541E-01
  4.593175E-01
  4.611487E-01
  4.644113E-01
  4.670968E-01
  4.582172E-01
  4.569954E-01
  4.594095E-01
  4.626649E-01
  4.592581E-01
  4.632267E-01
  4.656453E-01
  4.683562E-01
  4.643504E-01
  4.621275E-01
  4.558597E-01
  4.551333E-01
  4.525975E-01
  4.529485E-01
  4.546906E-01
  4.649008E-01
  4.687329E-01
  4.764583E-01
  4.711766E-01
  4.669357E-01
  4.635272E-01
  4.641230E-01
  4.616660E-01
  4.574607E-01
  4.557410E-01
  4.615913E-01
  4.617608E-01
  4.611243E-01
  4.629492E-01
  4.616119E-01
  4.557670E-01
  4.579894E-01
  4.655927E-01
  4.731336E-01
  4.696498E-01
  4.641658E-01
  4.629648E-01
  4.654260E-01
  4.648821E-01
  4.606097E-01
  4.538338E-01
  4.563365E-01
  4.599775E-01
  4.597124E-01
  4.607348E-01
  4.673902E-01
  4.640256E-01
  4.554484E-01
  4.541790E-01
  4.645600E-01
  4.719037E-01
  4.720103E-01
  4.674863E-01
  4.663107E-01
  4.619636E-01
  4.582058E-01
  4.608019E-01
  4.643409E-01
  4.577799E-01
  4.569000E-01
  4.619754E-01
  4.681984E-01
  4.698942E-01
  4.646132E-01
  4.535652E-01
  4.519267E-01
  4.590201E-01
  4.670459E-01
  4.657601E-01
  4.630588E-01
  4.635694E-01
  4.673029E-01
  4.639011E-01
  4.590957E-01
  4.567081E-01
  4.583050E-01
  4.579066E-01
  4.571576E-01
  4.603891E-01
  4.725773E-01
  4.782561E-01
  4.692625E-01
  4.675390E-01
  4.622959E-01
  4.612064E-01
  4.622088E-01
  4.627617E-01
  4.569872E-01
  4.552623E-01
  4.586694E-01
  4.633705E-01
  4.626758E-01
  4.636185E-01
  4.579813E-01
  4.538033E-01
  4.545151E-01
  4.594438E-01
  4.619836E-01
  4.638704E-01
  4.602215E-01
  4.581836E-01
  4.571607E-01
  4.618843E-01
  4.622606E-01
  4.595392E-01
  4.568414E-01
  4.591719E-01
  4.579080E-01
  4.599523E-01
  4.657113E-01
  4.677216E-01
  4.596241E-01
  4.600490E-01
  4.652768E-01
  4.695774E-01
  4.693820E-01
  4.680041E-01
  4.617629E-01
  4.594845E-01
  4.596749E-01
  4.626013E-01
  4.596465E-01
  4.583551E-01
  4.607923E-01
  4.659650E-01
  4.683723E-01
  4.708021E-01
  4.636681E-01
  4.567516E-01
  4.537697E-01
  4.586287E-01
  4.640503E-01
  4.659371E-01
  4.617405E-01
  4.634413E-01
  4.643705E-01
  4.592799E-01
  4.534601E-01
  4.610967E-01
  4.675394E-01
  4.677977E-01
  4.620226E-01
  4.609780E-01
  4.646239E-01
  4.703326E-01
  4.678209E-01
  4.650308E-01
  4.632883E-01
  4.605582E-01
  4.640111E-01
  4.638664E-01
  4.601507E-01
  4.558943E-01
  4.603008E-01
  4.616714E-01
  4.606407E-01
  4.579625E-01
  4.593512E-01
  4.585130E-01
  4.576492E-01
  4.542450E-01
  4.549953E-01
  4.564702E-01
  4.610436E-01
  4.591036E-01
  4.567936E-01
  4.600474E-01
  4.679436E-01
  4.685284E-01
  4.693915E-01
  4.661404E-01
  4.626597E-01
  4.604635E-01
  4.644033E-01
  4.645787E-01
  4.659425E-01
  4.680279E-01
  4.710428E-01
  4.687249E-01
  4.665440E-01
  4.581601E-01
  4.543608E-01
  4.576299E-01
  4.631399E-01
  4.635925E-01
  4.665786E-01
  4.632022E-01
  4.611360E-01
  4.640486E-01
  4.698149E-01
  4.658232E-01
  4.604494E-01
  4.574732E-01
  4.575428E-01
  4.549046E-01
  4.586925E-01
  4.599315E-01
  4.588502E-01
  4.604151E-01
  4.676713E-01
  4.637882E-01
  4.608533E-01
  4.642254E-01
  4.692614E-01
  4.691689E-01
  4.694595E-01
  4.652370E-01
  4.655942E-01
  4.668141E-01
  4.626827E-01
  4.620351E-01
  4.664088E-01
  4.600910E-01
  4.623464E-01
  4.597939E-01
  4.663363E-01
  4.620187E-01
  4.601185E-01
  4.509953E-01
  4.559799E-01
  4.573547E-01
  4.635017E-01
  4.597678E-01
  4.666664E-01
  4.627458E-01
  4.603366E-01
  4.541951E-01
  4.607488E-01
  4.545244E-01
  4.540667E-01
  4.568520E-01
  4.710037E-01
  4.679655E-01
  4.685858E-01
  4.623792E-01
  4.638325E-01
  4.606085E-01
  4.677570E-01
  4.626617E-01
  4.622430E-01
  4.590333E-01
  4.658086E-01
  4.626037E-01
  4.660700E-01
  4.588194E-01
  4.608349E-01
  4.606725E-01
  4.648566E-01
  4.567809E-01
  4.613243E-01
  4.610040E-01
  4.641748E-01
  4.589563E-01
  4.630530E-01
  4.561277E-01
  4.568878E-01
  4.569578E-01
  4.625927E-01