# vtk DataFile Version 2.0
title
ASCII
DATASET STRUCTURED_GRID
DIMENSIONS   64   64    1
POINTS   4096  float
  0.000000E+00  0.000000E+00  0.000000E+00
  0.000000E+00  3.906250E-01  0.000000E+00
  0.000000E+00  7.812500E-01  0.000000E+00
  0.000000E+00  1.171875E+00  0.000000E+00
  0.000000E+00  1.562500E+00  0.000000E+00
  0.000000E+00  1.953125E+00  0.000000E+00
  0.000000E+00  2.343750E+00  0.000000E+00
  0.000000E+00  2.734375E+00  0.000000E+00
  0.000000E+00  3.125000E+00  0.000000E+00
  0.000000E+00  3.515625E+00  0.000000E+00
  0.000000E+00  3.906250E+00  0.000000E+00
  0.000000E+00  4.296875E+00  0.000000E+00
  0.000000E+00  4.687500E+00  0.000000E+00
  0.000000E+00  5.078125E+00  0.000000E+00
  0.000000E+00  5.468750E+00  0.000000E+00
  0.000000E+00  5.859375E+00  0.000000E+00
  0.000000E+00  6.250000E+00  0.000000E+00
  0.000000E+00  6.640625E+00  0.000000E+00
  0.000000E+00  7.031250E+00  0.000000E+00
  0.000000E+00  7.421875E+00  0.000000E+00
  0.000000E+00  7.812500E+00  0.000000E+00
  0.000000E+00  8.203125E+00  0.000000E+00
  0.000000E+00  8.593750E+00  0.000000E+00
  0.000000E+00  8.984375E+00  0.000000E+00
  0.000000E+00  9.375000E+00  0.000000E+00
  0.000000E+00  9.765625E+00  0.000000E+00
  0.000000E+00  1.015625E+01  0.000000E+00
  0.000000E+00  1.054688E+01  0.000000E+00
  0.000000E+00  1.093750E+01  0.000000E+00
  0.000000E+00  1.132812E+01  0.000000E+00
  0.000000E+00  1.171875E+01  0.000000E+00
  0.000000E+00  1.210938E+01  0.000000E+00
  0.000000E+00  1.250000E+01  0.000000E+00
  0.000000E+00  1.289062E+01  0.000000E+00
  0.000000E+00  1.328125E+01  0.000000E+00
  0.000000E+00  1.367188E+01  0.000000E+00
  0.000000E+00  1.406250E+01  0.000000E+00
  0.000000E+00  1.445312E+01  0.000000E+00
  0.000000E+00  1.484375E+01  0.000000E+00
  0.000000E+00  1.523438E+01  0.000000E+00
  0.000000E+00  1.562500E+01  0.000000E+00
  0.000000E+00  1.601562E+01  0.000000E+00
  0.000000E+00  1.640625E+01  0.000000E+00
  0.000000E+00  1.679688E+01  0.000000E+00
  0.000000E+00  1.718750E+01  0.000000E+00
  0.000000E+00  1.757812E+01  0.000000E+00
  0.000000E+00  1.796875E+01  0.000000E+00
  0.000000E+00  1.835938E+01  0.000000E+00
  0.000000E+00  1.875000E+01  0.000000E+00
  0.000000E+00  1.914062E+01  0.000000E+00
  0.000000E+00  1.953125E+01  0.000000E+00
  0.000000E+00  1.992188E+01  0.000000E+00
  0.000000E+00  2.031250E+01  0.000000E+00
  0.000000E+00  2.070312E+01  0.000000E+00
  0.000000E+00  2.109375E+01  0.000000E+00
  0.000000E+00  2.148438E+01  0.000000E+00
  0.000000E+00  2.187500E+01  0.000000E+00
  0.000000E+00  2.226562E+01  0.000000E+00
  0.000000E+00  2.265625E+01  0.000000E+00
  0.000000E+00  2.304688E+01  0.000000E+00
  0.000000E+00  2.343750E+01  0.000000E+00
  0.000000E+00  2.382812E+01  0.000000E+00
  0.000000E+00  2.421875E+01  0.000000E+00
  0.000000E+00  2.460938E+01  0.000000E+00
  3.906250E-01  0.000000E+00  0.000000E+00
  3.906250E-01  3.906250E-01  0.000000E+00
  3.906250E-01  7.812500E-01  0.000000E+00
  3.906250E-01  1.171875E+00  0.000000E+00
  3.906250E-01  1.562500E+00  0.000000E+00
  3.906250E-01  1.953125E+00  0.000000E+00
  3.906250E-01  2.343750E+00  0.000000E+00
  3.906250E-01  2.734375E+00  0.000000E+00
  3.906250E-01  3.125000E+00  0.000000E+00
  3.906250E-01  3.515625E+00  0.000000E+00
  3.906250E-01  3.906250E+00  0.000000E+00
  3.906250E-01  4.296875E+00  0.000000E+00
  3.906250E-01  4.687500E+00  0.000000E+00
  3.906250E-01  5.078125E+00  0.000000E+00
  3.906250E-01  5.468750E+00  0.000000E+00
  3.906250E-01  5.859375E+00  0.000000E+00
  3.906250E-01  6.250000E+00  0.000000E+00
  3.906250E-01  6.640625E+00  0.000000E+00
  3.906250E-01  7.031250E+00  0.000000E+00
  3.906250E-01  7.421875E+00  0.000000E+00
  3.906250E-01  7.812500E+00  0.000000E+00
  3.906250E-01  8.203125E+00  0.000000E+00
  3.906250E-01  8.593750E+00  0.000000E+00
  3.906250E-01  8.984375E+00  0.000000E+00
  3.906250E-01  9.375000E+00  0.000000E+00
  3.906250E-01  9.765625E+00  0.000000E+00
  3.906250E-01  1.015625E+01  0.000000E+00
  3.906250E-01  1.054688E+01  0.000000E+00
  3.906250E-01  1.093750E+01  0.000000E+00
  3.906250E-01  1.132812E+01  0.000000E+00
  3.906250E-01  1.171875E+01  0.000000E+00
  3.906250E-01  1.210938E+01  0.000000E+00
  3.906250E-01  1.250000E+01  0.000000E+00
  3.906250E-01  1.289062E+01  0.000000E+00
  3.906250E-01  1.328125E+01  0.000000E+00
  3.906250E-01  1.367188E+01  0.000000E+00
  3.906250E-01  1.406250E+01  0.000000E+00
  3.906250E-01  1.445312E+01  0.000000E+00
  3.906250E-01  1.484375E+01  0.000000E+00
  3.906250E-01  1.523438E+01  0.000000E+00
  3.906250E-01  1.562500E+01  0.000000E+00
  3.906250E-01  1.601562E+01  0.000000E+00
  3.906250E-01  1.640625E+01  0.000000E+00
  3.906250E-01  1.679688E+01  0.000000E+00
  3.906250E-01  1.718750E+01  0.000000E+00
  3.906250E-01  1.757812E+01  0.000000E+00
  3.906250E-01  1.796875E+01  0.000000E+00
  3.906250E-01  1.835938E+01  0.000000E+00
  3.906250E-01  1.875000E+01  0.000000E+00
  3.906250E-01  1.914062E+01  0.000000E+00
  3.906250E-01  1.953125E+01  0.000000E+00
  3.906250E-01  1.992188E+01  0.000000E+00
  3.906250E-01  2.031250E+01  0.000000E+00
  3.906250E-01  2.070312E+01  0.000000E+00
  3.906250E-01  2.109375E+01  0.000000E+00
  3.906250E-01  2.148438E+01  0.000000E+00
  3.906250E-01  2.187500E+01  0.000000E+00
  3.906250E-01  2.226562E+01  0.000000E+00
  3.906250E-01  2.265625E+01  0.000000E+00
  3.906250E-01  2.304688E+01  0.000000E+00
  3.906250E-01  2.343750E+01  0.000000E+00
  3.906250E-01  2.382812E+01  0.000000E+00
  3.906250E-01  2.421875E+01  0.000000E+00
  3.906250E-01  2.460938E+01  0.000000E+00
  7.812500E-01  0.000000E+00  0.000000E+00
  7.812500E-01  3.906250E-01  0.000000E+00
  7.812500E-01  7.812500E-01  0.000000E+00
  7.812500E-01  1.171875E+00  0.000000E+00
  7.812500E-01  1.562500E+00  0.000000E+00
  7.812500E-01  1.953125E+00  0.000000E+00
  7.812500E-01  2.343750E+00  0.000000E+00
  7.812500E-01  2.734375E+00  0.000000E+00
  7.812500E-01  3.125000E+00  0.000000E+00
  7.812500E-01  3.515625E+00  0.000000E+00
  7.812500E-01  3.906250E+00  0.000000E+00
  7.812500E-01  4.296875E+00  0.000000E+00
  7.812500E-01  4.687500E+00  0.000000E+00
  7.812500E-01  5.078125E+00  0.000000E+00
  7.812500E-01  5.468750E+00  0.000000E+00
  7.812500E-01  5.859375E+00  0.000000E+00
  7.812500E-01  6.250000E+00  0.000000E+00
  7.812500E-01  6.640625E+00  0.000000E+00
  7.812500E-01  7.031250E+00  0.000000E+00
  7.812500E-01  7.421875E+00  0.000000E+00
  7.812500E-01  7.812500E+00  0.000000E+00
  7.812500E-01  8.203125E+00  0.000000E+00
  7.812500E-01  8.593750E+00  0.000000E+00
  7.812500E-01  8.984375E+00  0.000000E+00
  7.812500E-01  9.375000E+00  0.000000E+00
  7.812500E-01  9.765625E+00  0.000000E+00
  7.812500E-01  1.015625E+01  0.000000E+00
  7.812500E-01  1.054688E+01  0.000000E+00
  7.812500E-01  1.093750E+01  0.000000E+00
  7.812500E-01  1.132812E+01  0.000000E+00
  7.812500E-01  1.171875E+01  0.000000E+00
  7.812500E-01  1.210938E+01  0.000000E+00
  7.812500E-01  1.250000E+01  0.000000E+00
  7.812500E-01  1.289062E+01  0.000000E+00
  7.812500E-01  1.328125E+01  0.000000E+00
  7.812500E-01  1.367188E+01  0.000000E+00
  7.812500E-01  1.406250E+01  0.000000E+00
  7.812500E-01  1.445312E+01  0.000000E+00
  7.812500E-01  1.484375E+01  0.000000E+00
  7.812500E-01  1.523438E+01  0.000000E+00
  7.812500E-01  1.562500E+01  0.000000E+00
  7.812500E-01  1.601562E+01  0.000000E+00
  7.812500E-01  1.640625E+01  0.000000E+00
  7.812500E-01  1.679688E+01  0.000000E+00
  7.812500E-01  1.718750E+01  0.000000E+00
  7.812500E-01  1.757812E+01  0.000000E+00
  7.812500E-01  1.796875E+01  0.000000E+00
  7.812500E-01  1.835938E+01  0.000000E+00
  7.812500E-01  1.875000E+01  0.000000E+00
  7.812500E-01  1.914062E+01  0.000000E+00
  7.812500E-01  1.953125E+01  0.000000E+00
  7.812500E-01  1.992188E+01  0.000000E+00
  7.812500E-01  2.031250E+01  0.000000E+00
  7.812500E-01  2.070312E+01  0.000000E+00
  7.812500E-01  2.109375E+01  0.000000E+00
  7.812500E-01  2.148438E+01  0.000000E+00
  7.812500E-01  2.187500E+01  0.000000E+00
  7.812500E-01  2.226562E+01  0.000000E+00
  7.812500E-01  2.265625E+01  0.000000E+00
  7.812500E-01  2.304688E+01  0.000000E+00
  7.812500E-01  2.343750E+01  0.000000E+00
  7.812500E-01  2.382812E+01  0.000000E+00
  7.812500E-01  2.421875E+01  0.000000E+00
  7.812500E-01  2.460938E+01  0.000000E+00
  1.171875E+00  0.000000E+00  0.000000E+00
  1.171875E+00  3.906250E-01  0.000000E+00
  1.171875E+00  7.812500E-01  0.000000E+00
  1.171875E+00  1.171875E+00  0.000000E+00
  1.171875E+00  1.562500E+00  0.000000E+00
  1.171875E+00  1.953125E+00  0.000000E+00
  1.171875E+00  2.343750E+00  0.000000E+00
  1.171875E+00  2.734375E+00  0.000000E+00
  1.171875E+00  3.125000E+00  0.000000E+00
  1.171875E+00  3.515625E+00  0.000000E+00
  1.171875E+00  3.906250E+00  0.000000E+00
  1.171875E+00  4.296875E+00  0.000000E+00
  1.171875E+00  4.687500E+00  0.000000E+00
  1.171875E+00  5.078125E+00  0.000000E+00
  1.171875E+00  5.468750E+00  0.000000E+00
  1.171875E+00  5.859375E+00  0.000000E+00
  1.171875E+00  6.250000E+00  0.000000E+00
  1.171875E+00  6.640625E+00  0.000000E+00
  1.171875E+00  7.031250E+00  0.000000E+00
  1.171875E+00  7.421875E+00  0.000000E+00
  1.171875E+00  7.812500E+00  0.000000E+00
  1.171875E+00  8.203125E+00  0.000000E+00
  1.171875E+00  8.593750E+00  0.000000E+00
  1.171875E+00  8.984375E+00  0.000000E+00
  1.171875E+00  9.375000E+00  0.000000E+00
  1.171875E+00  9.765625E+00  0.000000E+00
  1.171875E+00  1.015625E+01  0.000000E+00
  1.171875E+00  1.054688E+01  0.000000E+00
  1.171875E+00  1.093750E+01  0.000000E+00
  1.171875E+00  1.132812E+01  0.000000E+00
  1.171875E+00  1.171875E+01  0.000000E+00
  1.171875E+00  1.210938E+01  0.000000E+00
  1.171875E+00  1.250000E+01  0.000000E+00
  1.171875E+00  1.289062E+01  0.000000E+00
  1.171875E+00  1.328125E+01  0.000000E+00
  1.171875E+00  1.367188E+01  0.000000E+00
  1.171875E+00  1.406250E+01  0.000000E+00
  1.171875E+00  1.445312E+01  0.000000E+00
[...]
POINT_DATA   4096
SCALARS CON  float  1
LOOKUP_TABLE default
  4.335862E-01
  4.322124E-01
  4.376023E-01
  4.363811E-01
  4.367572E-01
  4.302866E-01
  4.310544E-01
  4.303949E-01
  4.360900E-01
  4.344422E-01
  4.349935E-01
  4.298240E-01
  4.313043E-01
  4.290139E-01
  4.318396E-01
  4.295660E-01
  4.334573E-01
  4.332181E-01
  4.371799E-01
  4.335486E-01
  4.332910E-01
  4.280829E-01
  4.291535E-01
  4.259863E-01
  4.279309E-01
  4.245165E-01
  4.266782E-01
  4.257965E-01
  4.324550E-01
  4.341180E-01
  4.373797E-01
  4.313352E-01
  4.300730E-01
  4.274386E-01
  4.332707E-01
  4.334108E-01
  4.352198E-01
  4.293959E-01
  4.289843E-01
  4.254115E-01
  4.283391E-01
  4.261754E-01
  4.283578E-01
  4.252015E-01
  4.275342E-01
  4.252162E-01
  4.286711E-01
  4.289305E-01
  4.362146E-01
  4.372138E-01
  4.386233E-01
  4.307822E-01
  4.283708E-01
  4.246354E-01
  4.300188E-01
  4.329805E-01
  4.413998E-01
  4.418957E-01
  4.431268E-01
  4.367044E-01
  4.365113E-01
  4.334441E-01
  4.358625E-01
  4.320672E-01
  4.335378E-01
  4.333912E-01
  4.407149E-01
  4.420490E-01
  4.417464E-01
  4.325762E-01
  4.293279E-01
  4.271166E-01
  4.325470E-01
  4.324137E-01
  4.339521E-01
  4.308206E-01
  4.335251E-01
  4.319623E-01
  4.328214E-01
  4.284566E-01
  4.306828E-01
  4.318985E-01
  4.380343E-01
  4.366516E-01
  4.356633E-01
  4.288855E-01
  4.281653E-01
  4.259635E-01
  4.295990E-01
  4.283612E-01
  4.302524E-01
  4.279868E-01
  4.317892E-01
  4.324061E-01
  4.359695E-01
  4.323153E-01
  4.318167E-01
  4.284776E-01
  4.313932E-01
  4.299707E-01
  4.314223E-01
  4.278379E-01
  4.295285E-01
  4.279466E-01
  4.301097E-01
  4.261121E-01
  4.255223E-01
  4.217625E-01
  4.241467E-01
  4.231164E-01
  4.270572E-01
  4.288634E-01
  4.373871E-01
  4.401015E-01
  4.411793E-01
  4.325825E-01
  4.289942E-01
  4.265493E-01
  4.336650E-01
  4.381548E-01
  4.449354E-01
  4.428988E-01
  4.411209E-01
  4.339711E-01
  4.337800E-01
  4.323354E-01
  4.355159E-01
  4.324685E-01
  4.268881E-01
  4.323522E-01
  4.409974E-01
  4.436519E-01
  4.413932E-01
  4.333777E-01
  4.294766E-01
  4.283899E-01
  4.319586E-01
  4.329120E-01
  4.341727E-01
  4.330150E-01
  4.342942E-01
  4.334128E-01
  4.335117E-01
  4.313561E-01
  4.325073E-01
  4.334409E-01
  4.365163E-01
  4.357968E-01
  4.348625E-01
  4.310234E-01
  4.297628E-01
  4.279030E-01
  4.290690E-01
  4.283106E-01
  4.288391E-01
  4.272286E-01
  4.284304E-01
  4.283450E-01
  4.294124E-01
  4.270531E-01
  4.269005E-01
  4.272242E-01
  4.316156E-01
  4.332086E-01
  4.336798E-01
  4.299716E-01
  4.286920E-01
  4.271696E-01
  4.281184E-01
  4.257456E-01
  4.238282E-01
  4.202959E-01
  4.209229E-01
  4.220724E-01
  4.269474E-01
  4.313312E-01
  4.383036E-01
  4.409371E-01
  4.402252E-01
  4.333861E-01
  4.293385E-01
  4.278351E-01
  4.326088E-01
  4.373250E-01
  4.431637E-01
  4.434477E-01
  4.408163E-01
  4.330549E-01
  4.278787E-01
  4.235548E-01
  4.234845E-01
  4.229616E-01
  4.264163E-01
  4.333324E-01
  4.399610E-01
  4.442281E-01
  4.393347E-01
  4.318780E-01
  4.249222E-01
  4.251673E-01
  4.274108E-01
  4.314641E-01
  4.326145E-01
  4.351652E-01
  4.359347E-01
  4.369002E-01
  4.338141E-01
  4.318374E-01
  4.303296E-01
  4.333417E-01
  4.352890E-01
  4.369842E-01
  4.345644E-01
  4.331052E-01
  4.309876E-01
  4.321037E-01
  4.322252E-01
  4.333949E-01
  4.312593E-01
  4.295613E-01
  4.265718E-01
  4.273109E-01
  4.283083E-01
  4.311409E-01
  4.308602E-01
  4.310534E-01
  4.293721E-01
  4.295531E-01
  4.280259E-01
  4.287577E-01
  4.292541E-01
  4.321217E-01
  4.313943E-01
  4.292223E-01
  4.244862E-01
  4.240532E-01
  4.251907E-01
  4.287540E-01
  4.294040E-01
  4.316446E-01
  4.336281E-01
  4.371579E-01
  4.355101E-01
  4.320877E-01
  4.277757E-01
  4.297738E-01
  4.341764E-01
  4.407499E-01
  4.427123E-01
  4.421180E-01
  4.362065E-01
  4.308512E-01
  4.254616E-01
  4.244423E-01
  4.233321E-01
  4.246865E-01
  4.238542E-01
  4.335753E-01
  4.371134E-01
  4.408194E-01
  4.333511E-01
  4.294034E-01
  4.228695E-01
  4.254642E-01
  4.251380E-01
  4.307532E-01
  4.310057E-01
  4.358958E-01
  4.339941E-01
  4.357242E-01
  4.313290E-01
  4.328632E-01
  4.304898E-01
  4.342947E-01
  4.325162E-01
  4.352832E-01
  4.324413E-01
  4.349741E-01
  4.316941E-01
  4.327877E-01
  4.283486E-01
  4.299492E-01
  4.267870E-01
  4.284318E-01
  4.243806E-01
  4.266213E-01
  4.254203E-01
  4.300917E-01
  4.283373E-01
  4.308789E-01
  4.284701E-01
  4.318310E-01
  4.292039E-01
  4.310137E-01
  4.280080E-01
  4.312305E-01
  4.284997E-01
  4.291942E-01
  4.243125E-01
  4.273087E-01
  4.281708E-01
  4.345028E-01
  4.325805E-01
  4.334896E-01
  4.293921E-01
  4.319579E-01
  4.290493E-01
  4.302160E-01
  4.262353E-01
  4.294623E-01
  4.293425E-01
  4.351725E-01
  4.351109E-01
  4.387142E-01
  4.343827E-01
  4.329978E-01
  4.254609E-01
  4.239838E-01
  4.190752E-01
  4.222331E-01
  4.287711E-01
  4.349856E-01
  4.350831E-01
  4.383074E-01
  4.309030E-01
  4.278674E-01
  4.204151E-01
  4.225784E-01
  4.213143E-01
  4.275712E-01
  4.280384E-01
  4.342635E-01
  4.325294E-01
  4.346176E-01
  4.289564E-01
  4.303213E-01
  4.280394E-01
  4.341027E-01
  4.338108E-01
  4.378802E-01
  4.338922E-01
  4.354447E-01
  4.303893E-01
  4.311461E-01
  4.260186E-01
  4.286145E-01
  4.262490E-01
  4.295781E-01
  4.257065E-01
  4.292205E-01
  4.294747E-01
  4.367676E-01
  4.343928E-01
  4.339651E-01
  4.264851E-01
  4.278021E-01
  4.255904E-01
  4.307671E-01
  4.300757E-01
  4.349361E-01
  4.309021E-01
  4.303984E-01
  4.247614E-01
  4.304302E-01
  4.339521E-01
  4.418090E-01
  4.369709E-01
  4.340993E-01
  4.262330E-01
  4.283771E-01
  4.260516E-01
  4.290480E-01
  4.252961E-01
  4.291121E-01
  4.282324E-01
  4.332865E-01
  4.305397E-01
  4.329748E-01
  4.292901E-01
  4.324749E-01
  4.296668E-01
  4.325947E-01
  4.285668E-01
  4.309224E-01
  4.282660E-01
  4.328892E-01
  4.323624E-01
  4.341265E-01
  4.292815E-01
  4.288473E-01
  4.248687E-01
  4.263375E-01
  4.240699E-01
  4.277547E-01
  4.281133E-01
  4.325090E-01
  4.301356E-01
  4.307637E-01
  4.274086E-01
  4.307471E-01
  4.313346E-01
  4.367537E-01
  4.362121E-01
  4.384784E-01
  4.350360E-01
  4.355789E-01
  4.301542E-01
  4.276381E-01
  4.208871E-01
  4.219329E-01
  4.220780E-01
  4.275847E-01
  4.269580E-01
  4.303198E-01
  4.305309E-01
  4.357256E-01
  4.336193E-01
  4.332218E-01
  4.287926E-01
  4.318373E-01
  4.316399E-01
  4.348236E-01
  4.319689E-01
  4.331979E-01
  4.291259E-01
  4.287811E-01
  4.250533E-01
  4.298464E-01
  4.337079E-01
  4.412826E-01
  4.387909E-01
  4.359925E-01
  4.283270E-01
  4.284678E-01
  4.266634E-01
  4.294568E-01
  4.265649E-01
  4.278467E-01
  4.249370E-01
  4.270582E-01
  4.251984E-01
  4.288530E-01
  4.288312E-01
  4.333888E-01
  4.320401E-01
  4.333135E-01
  4.288628E-01
  4.297838E-01
  4.301648E-01
  4.305295E-01
  4.304767E-01
  4.330271E-01
  4.320619E-01
  4.318858E-01
  4.289490E-01
  4.286535E-01
  4.270437E-01
  4.289256E-01
  4.295891E-01
  4.323460E-01
  4.314078E-01
  4.312697E-01
  4.289124E-01
  4.306117E-01
  4.325821E-01
  4.381534E-01
  4.402552E-01
  4.414381E-01
  4.374747E-01
  4.347751E-01
  4.299246E-01
  4.274374E-01
  4.235512E-01
  4.244230E-01
  4.258439E-01
  4.299088E-01
  4.301733E-01
  4.325406E-01
  4.348729E-01
  4.402379E-01
  4.397318E-01
  4.367511E-01
  4.309602E-01
  4.310516E-01
  4.320914E-01
  4.355137E-01
  4.352691E-01
  4.359556E-01
  4.327713E-01
  4.304903E-01
  4.271856E-01
  4.301703E-01
  4.341807E-01
  4.391899E-01
  4.371232E-01
  4.339003E-01
  4.293268E-01
  4.301013E-01
  4.300036E-01
  4.309182E-01
  4.284069E-01
  4.290127E-01
  4.289229E-01
  4.308742E-01
  4.287753E-01
  4.280217E-01
  4.265748E-01
  4.300483E-01
  4.325702E-01
  4.361339E-01
  4.347969E-01
  4.336683E-01
  4.249130E-01
  4.264535E-01
  4.281285E-01
  4.313381E-01
  4.327758E-01
  4.348719E-01
  4.349178E-01
  4.350634E-01
  4.332326E-01
  4.333259E-01
  4.332286E-01
  4.340956E-01
  4.322253E-01
  4.311310E-01
  4.302745E-01
  4.328759E-01
  4.354220E-01
  4.388920E-01
  4.393986E-01
  4.389169E-01
  4.356376E-01
  4.334753E-01
  4.302572E-01
  4.280550E-01
  4.249763E-01
  4.253882E-01
  4.272845E-01
  4.309331E-01
  4.314272E-01
  4.319429E-01
  4.322873E-01
  4.350857E-01
  4.354769E-01
  4.352842E-01
  4.342918E-01
  4.366558E-01
  4.379488E-01
  4.379284E-01
  4.341763E-01
  4.316773E-01
  4.293631E-01
  4.293497E-01
  4.285149E-01
  4.295918E-01
  4.302012E-01
  4.320072E-01
  4.313940E-01
  4.311850E-01
  4.303772E-01
  4.321916E-01
  4.327970E-01
  4.330624E-01
  4.307460E-01
  4.303141E-01
  4.303404E-01
  4.323078E-01
  4.318676E-01
  4.311644E-01
  4.290229E-01
  4.292618E-01
  4.290582E-01
  4.295753E-01
  4.275928E-01
  4.264043E-01
  4.253899E-01
  4.253684E-01
  4.274106E-01
  4.317953E-01
  4.341576E-01
  4.354909E-01
  4.346694E-01
  4.345801E-01
  4.337294E-01
  4.342901E-01
  4.343811E-01
  4.353079E-01
  4.343131E-01
  4.332473E-01
  4.311024E-01
  4.310084E-01
  4.318614E-01
  4.352413E-01
  4.373452E-01
  4.378075E-01
  4.344084E-01
  4.313105E-01
  4.288794E-01
  4.292964E-01
  4.298902E-01
  4.323016E-01
  4.341745E-01
  4.357654E-01
  4.340124E-01
  4.324907E-01
  4.321128E-01
  4.348506E-01
  4.358303E-01
  4.352123E-01
  4.329539E-01
  4.334505E-01
  4.342661E-01
  4.349253E-01
  4.327401E-01
  4.310146E-01
  4.291815E-01
  4.294454E-01
  4.297073E-01
  4.312363E-01
  4.309012E-01
  4.298549E-01
  4.272080E-01
  4.271685E-01
  4.291312E-01
  4.335303E-01
  4.352213E-01
  4.345125E-01
  4.315916E-01
  4.320271E-01
  4.348788E-01
  4.389465E-01
  4.383385E-01
  4.345416E-01
  4.290983E-01
  4.274588E-01
  4.280888E-01
  4.304680E-01
  4.301221E-01
  4.284540E-01
  4.229136E-01
  4.245560E-01
  4.267897E-01
  4.302228E-01
  4.320701E-01
  4.342140E-01
  4.347387E-01
  4.352466E-01
  4.340910E-01
  4.343164E-01
  4.344159E-01
  4.351170E-01
  4.333250E-01
  4.315905E-01
  4.296237E-01
  4.301135E-01
  4.308558E-01
  4.331880E-01
  4.343203E-01
  4.349472E-01
  4.326933E-01
  4.305545E-01
  4.280715E-01
  4.278293E-01
  4.281824E-01
  4.312380E-01
  4.342389E-01
  4.367288E-01
  4.348855E-01
  4.316229E-01
  4.279913E-01
  4.276397E-01
  4.280014E-01
  4.299277E-01
  4.315802E-01
  4.347454E-01
  4.357134E-01
  4.344357E-01
  4.294364E-01
  4.255329E-01
  4.236130E-01
  4.260358E-01
  4.288550E-01
  4.311836E-01
  4.298946E-01
  4.281493E-01
  4.264221E-01
  4.281730E-01
  4.311486E-01
  4.351572E-01
  4.358341E-01
  4.344540E-01
  4.310582E-01
  4.304689E-01
  4.319825E-01
  4.358891E-01
  4.372647E-01
  4.365435E-01
  4.330782E-01
  4.310278E-01
  4.291645E-01
  4.283865E-01
  4.259268E-01
  4.242716E-01
  4.265750E-01
  4.266179E-01
  4.276008E-01
  4.309912E-01
  4.321582E-01
  4.330792E-01
  4.314655E-01
  4.310545E-01
  4.297935E-01
  4.309417E-01
  4.316216E-01
  4.336264E-01
  4.328355E-01
  4.316871E-01
  4.284887E-01
  4.278055E-01
  4.281642E-01
  4.322657E-01
  4.354369E-01
  4.376975E-01
  4.349009E-01
  4.313957E-01
  4.272914E-01
  4.271761E-01
  4.283779E-01
  4.328383E-01
  4.361489E-01
  4.387463E-01
  4.364250E-01
  4.334467E-01
  4.300680E-01
  4.303752E-01
  4.300690E-01
  4.302307E-01
  4.285905E-01
  4.294781E-01
  4.300319E-01
  4.312859E-01
  4.293055E-01
  4.276450E-01
  4.253211E-01
  4.264981E-01
  4.283702E-01
  4.319738E-01
  4.323197E-01
  4.317399E-01
  4.293916E-01
  4.304726E-01
  4.324692E-01
  4.357900E-01
  4.348560E-01
  4.322862E-01
  4.281399E-01
  4.283994E-01
  4.308002E-01
  4.355099E-01
  4.365322E-01
  4.359884E-01
  4.332279E-01
  4.333001E-01
  4.333509E-01
  4.343514E-01
  4.321322E-01
  4.298953E-01
  4.248968E-01
  4.275723E-01
  4.279151E-01
  4.306852E-01
  4.308331E-01
  4.332860E-01
  4.320452E-01
  4.319242E-01
  4.288365E-01
  4.297211E-01
  4.297090E-01
  4.321481E-01
  4.301399E-01
  4.294618E-01
  4.270662E-01
  4.292675E-01
  4.303350E-01
  4.343241E-01
  4.352583E-01
  4.375637E-01
  4.352926E-01
  4.336637E-01
  4.285362E-01
  4.267003E-01
  4.244992E-01
  4.277289E-01
  4.303293E-01
  4.350241E-01
  4.343328E-01
  4.333996E-01
  4.291747E-01
  4.288409E-01
  4.274330E-01
  4.293439E-01
  4.291455E-01
  4.319495E-01
  4.316865E-01
  4.322664E-01
  4.284487E-01
  4.269695E-01
  4.245407E-01
  4.268701E-01
  4.276853E-01
  4.305334E-01
  4.297589E-01
  4.313708E-01
  4.311004E-01
  4.340101E-01
  4.338651E-01
  4.346984E-01
  4.310556E-01
  4.291848E-01
  4.255290E-01
  4.262013E-01
  4.260589E-01
  4.297073E-01
  4.312476E-01
  4.351013E-01
  4.354840E-01
  4.370591E-01
  4.341137E-01
  4.320253E-01
  4.270404E-01
  4.261600E-01
  4.284898E-01
  4.298532E-01
  4.291714E-01
  4.318958E-01
  4.319885E-01
  4.335565E-01
  4.307949E-01
  4.298032E-01
  4.266733E-01
  4.277145E-01
  4.275706E-01
  4.303542E-01
  4.293884E-01
  4.297904E-01
  4.274842E-01
  4.290922E-01
  4.295576E-01
  4.335472E-01
  4.349115E-01
  4.379629E-01
  4.362860E-01
  4.350617E-01
  4.301855E-01
  4.286683E-01
  4.261748E-01
  4.281087E-01
  4.287359E-01
  4.322654E-01
  4.321152E-01
  4.334357E-01
  4.320622E-01
  4.340176E-01
  4.329238E-01
  4.327860E-01
  4.288987E-01
  4.285376E-01
  4.273310E-01
  4.298339E-01
  4.297179E-01
  4.318091E-01
  4.305436E-01
  4.312200E-01
  4.291451E-01
  4.304360E-01
  4.298845E-01
  4.321281E-01
  4.312638E-01
  4.325678E-01
  4.307448E-01
  4.307650E-01
  4.272191E-01
  4.264364E-01
  4.247085E-01
  4.277995E-01
  4.292001E-01
  4.325229E-01
  4.319183E-01
  4.334551E-01
  4.325838E-01
  4.343800E-01
  4.326755E-01
  4.326395E-01
  4.297704E-01
  4.301549E-01
  4.288466E-01
  4.305498E-01
  4.298086E-01
  4.299581E-01
  4.305463E-01
  4.326573E-01
  4.328979E-01
  4.321229E-01
  4.295831E-01
  4.286673E-01
  4.281973E-01
  4.287597E-01
  4.277406E-01
  4.277120E-01
  4.285067E-01
  4.315238E-01
  4.329509E-01
  4.333463E-01
  4.324166E-01
  4.336957E-01
  4.350227E-01
  4.358328E-01
  4.330951E-01
  4.294485E-01
  4.251805E-01
  4.235323E-01
  4.234973E-01
  4.262688E-01
  4.283940E-01
  4.298394E-01
  4.289846E-01
  4.290417E-01
  4.291811E-01
  4.306310E-01
  4.310290E-01
  4.317989E-01
  4.309921E-01
  4.303284E-01
  4.289868E-01
  4.296877E-01
  4.304967E-01
  4.316003E-01
  4.302675E-01
  4.290005E-01
  4.278771E-01
  4.291961E-01
  4.300051E-01
  4.304026E-01
  4.283966E-01
  4.266683E-01
  4.248769E-01
  4.257388E-01
  4.275426E-01
  4.305502E-01
  4.313592E-01
  4.314631E-01
  4.305538E-01
  4.313333E-01
  4.313616E-01
  4.308077E-01
  4.276592E-01
  4.252922E-01
  4.242121E-01
  4.265729E-01
  4.364739E-01
  4.337224E-01
  4.316152E-01
  4.294536E-01
  4.307055E-01
  4.306653E-01
  4.314924E-01
  4.300870E-01
  4.301567E-01
  4.286449E-01
  4.288419E-01
  4.276301E-01
  4.283690E-01
  4.282100E-01
  4.307348E-01
  4.321310E-01
  4.341312E-01
  4.329705E-01
  4.333839E-01
  4.336184E-01
  4.360769E-01
  4.353531E-01
  4.339849E-01
  4.299567E-01
  4.278110E-01
  4.249207E-01
  4.250685E-01
  4.253237E-01
  4.278858E-01
  4.280772E-01
  4.291920E-01
  4.292767E-01
  4.316722E-01
  4.317339E-01
  4.318258E-01
  4.294427E-01
  4.289818E-01
  4.278954E-01
  4.297491E-01
  4.309569E-01
  4.332324E-01
  4.320151E-01
  4.312518E-01
  4.297444E-01
  4.313437E-01
  4.311251E-01
  4.305749E-01
  4.269649E-01
  4.255390E-01
  4.242357E-01
  4.259585E-01
  4.271595E-01
  4.312279E-01
  4.342519E-01
  4.372920E-01
  4.353529E-01
  4.324236E-01
  4.276396E-01
  4.257882E-01
  4.237261E-01
  4.246445E-01
  4.259899E-01
  4.309492E-01
  4.342808E-01
  4.389856E-01
  4.361485E-01
  4.327315E-01
  4.282625E-01
  4.286167E-01
  4.289560E-01
  4.316080E-01
  4.313789E-01
  4.322912E-01
  4.306294E-01
  4.305421E-01
  4.277651E-01
  4.270279E-01
  4.261249E-01
  4.303764E-01
  4.340579E-01
  4.375805E-01
  4.352065E-01
  4.335315E-01
  4.318569E-01
  4.344133E-01
  4.342286E-01
  4.333052E-01
  4.282837E-01
  4.253253E-01
  4.219232E-01
  4.229679E-01
  4.241651E-01
  4.275287E-01
  4.266028E-01
  4.257728E-01
  4.240002E-01
  4.274331E-01
  4.307885E-01
  4.352411E-01
  4.348496E-01
  4.338526E-01
  4.296733E-01
  4.283401E-01
  4.268483E-01
  4.287059E-01
  4.285204E-01
  4.299899E-01
  4.297849E-01
  4.322059E-01
  4.317923E-01
  4.311929E-01
  4.269829E-01
  4.256173E-01
  4.246159E-01
  4.277063E-01
  4.297312E-01
  4.338679E-01
  4.348366E-01
  4.353193E-01
  4.311734E-01
  4.284603E-01
  4.249672E-01
  4.246655E-01
  4.224939E-01
  4.229189E-01
  4.237837E-01
  4.299295E-01
  4.349545E-01
  4.435112E-01
  4.388755E-01
  4.339870E-01
  4.300433E-01
  4.291822E-01
  4.280409E-01
  4.280197E-01
  4.277398E-01
  4.292336E-01
  4.295926E-01
  4.298066E-01
  4.279428E-01
  4.268900E-01
  4.260743E-01
  4.283264E-01
  4.310238E-01
  4.339643E-01
  4.337204E-01
  4.331032E-01
  4.319481E-01
  4.325170E-01
  4.317202E-01
  4.308587E-01
  4.285217E-01
  4.273752E-01
  4.259430E-01
  4.267491E-01
  4.279059E-01
  4.298555E-01
  4.290852E-01
  4.285119E-01
  4.288949E-01
  4.327877E-01
  4.355495E-01
  4.362972E-01
  4.331876E-01
  4.305042E-01
  4.282577E-01
  4.287711E-01
  4.290595E-01
  4.296371E-01
  4.285033E-01
  4.294049E-01
  4.317091E-01
  4.355451E-01
  4.352533E-01
  4.316055E-01
  4.258176E-01
  4.239619E-01
  4.250433E-01
  4.287106E-01
  4.308305E-01
  4.331902E-01
  4.341643E-01
  4.347172E-01
  4.318097E-01
  4.283418E-01
  4.246318E-01
  4.237878E-01
  4.236265E-01
  4.261807E-01
  4.303495E-01
  4.374914E-01
  4.423938E-01
  4.386285E-01
  4.365191E-01
  4.332237E-01
  4.295327E-01
  4.284396E-01
  4.277656E-01
  4.282529E-01
  4.277964E-01
  4.283724E-01
  4.284152E-01
  4.290140E-01
  4.275137E-01
  4.258590E-01
  4.242153E-01
  4.260093E-01
  4.287927E-01
  4.314517E-01
  4.303562E-01
  4.283630E-01
  4.265037E-01
  4.278339E-01
  4.294579E-01
  4.309597E-01
  4.296218E-01
  4.279328E-01
  4.259315E-01
  4.268826E-01
  4.289088E-01
  4.313824E-01
  4.303603E-01
  4.286352E-01
  4.279801E-01
  4.316428E-01
  4.354194E-01
  4.375227E-01
  4.353557E-01
  4.324737E-01
  4.291650E-01
  4.279066E-01
  4.267461E-01
  4.270129E-01
  4.270618E-01
  4.290721E-01
  4.312242E-01
  4.337456E-01
  4.328482E-01
  4.299216E-01
  4.254587E-01
  4.239526E-01
  4.245002E-01
  4.274641E-01
  4.294796E-01
  4.314749E-01
  4.312973E-01
  4.303741E-01
  4.278110E-01
  4.273481E-01
  4.283104E-01
  4.309648E-01
  4.313185E-01
  4.309889E-01
  4.305059E-01
  4.333082E-01
  4.364479E-01
  4.365396E-01
  4.328875E-01
  4.325934E-01
  4.297540E-01
  4.306770E-01
  4.276938E-01
  4.275969E-01
  4.244387E-01
  4.255836E-01
  4.242544E-01
  4.268299E-01
  4.261354E-01
  4.284872E-01
  4.269275E-01
  4.284160E-01
  4.264222E-01
  4.276178E-01
  4.250239E-01
  4.256778E-01
  4.237322E-01
  4.267538E-01
  4.279064E-01
  4.326544E-01
  4.325807E-01
  4.339602E-01
  4.311784E-01
  4.328118E-01
  4.323574E-01
  4.349197E-01
  4.324626E-01
  4.332602E-01
  4.328068E-01
  4.372483E-01
  4.363149E-01
  4.349382E-01
  4.284974E-01
  4.273519E-01
  4.259271E-01
  4.294773E-01
  4.291594E-01
  4.308515E-01
  4.286307E-01
  4.309535E-01
  4.314223E-01
  4.347652E-01
  4.316647E-01
  4.291436E-01
  4.234080E-01
  4.237598E-01
  4.233231E-01
  4.269890E-01
  4.268748E-01
  4.299981E-01
  4.298911E-01
  4.327719E-01
  4.314713E-01
  4.336224E-01
  4.334558E-01
  4.372597E-01
  4.365764E-01
  4.377303E-01
  4.351570E-01
  4.368737E-01
  4.355300E-01
  4.297189E-01
  4.282159E-01
  4.315773E-01
  4.284509E-01
  4.310704E-01
  4.283358E-01
  4.310282E-01
  4.268551E-01
  4.275851E-01
  4.233564E-01
  4.266130E-01
  4.254872E-01
  4.302294E-01
  4.289085E-01
  4.328077E-01
  4.298332E-01
  4.307618E-01
  4.245627E-01
  4.244180E-01
  4.210393E-01
  4.266337E-01
  4.284848E-01
  4.350576E-01
  4.327525E-01
  4.337270E-01
  4.292105E-01
  4.326797E-01
  4.319872E-01
  4.359249E-01
  4.315233E-01
  4.320377E-01
  4.288409E-01
  4.334835E-01
  4.318102E-01
  4.335445E-01
  4.284342E-01
  4.298956E-01
  4.266892E-01
  4.292393E-01
  4.259873E-01
  4.292182E-01
  4.279472E-01
  4.328199E-01
  4.310941E-01
  4.334900E-01
  4.288196E-01
  4.296206E-01
  4.254180E-01
  4.277660E-01