# vtk DataFile Version 2.0
title
ASCII
DATASET STRUCTURED_GRID
DIMENSIONS   64   64    1
POINTS   4096  float
  0.000000E+00  0.000000E+00  0.000000E+00
  0.000000E+00  3.906250E-01  0.000000E+00
  0.000000E+00  7.812500E-01  0.000000E+00
  0.000000E+00  1.171875E+00  0.000000E+00
  0.000000E+00  1.562500E+00  0.000000E+00
  0.000000E+00  1.953125E+00  0.000000E+00
  0.000000E+00  2.343750E+00  0.000000E+00
  0.000000E+00  2.734375E+00  0.000000E+00
  0.000000E+00  3.125000E+00  0.000000E+00
  0.000000E+00  3.515625E+00  0.000000E+00
  0.000000E+00  3.906250E+00  0.000000E+00
  0.000000E+00  4.296875E+00  0.000000E+00
  0.000000E+00  4.687500E+00  0.000000E+00
  0.000000E+00  5.078125E+00  0.000000E+00
  0.000000E+00  5.468750E+00  0.000000E+00
  0.000000E+00  5.859375E+00  0.000000E+00
  0.000000E+00  6.250000E+00  0.000000E+00
  0.000000E+00  6.640625E+00  0.000000E+00
  0.000000E+00  7.031250E+00  0.000000E+00
  0.000000E+00  7.421875E+00  0.000000E+00
  0.000000E+00  7.812500E+00  0.000000E+00
  0.000000E+00  8.203125E+00  0.000000E+00
  0.000000E+00  8.593750E+00  0.000000E+00
  0.000000E+00  8.984375E+00  0.000000E+00
  0.000000E+00  9.375000E+00  0.000000E+00
  0.000000E+00  9.765625E+00  0.000000E+00
  0.000000E+00  1.015625E+01  0.000000E+00
  0.000000E+00  1.054688E+01  0.000000E+00
  0.000000E+00  1.093750E+01  0.000000E+00
  0.000000E+00  1.132812E+01  0.000000E+00
  0.000000E+00  1.171875E+01  0.000000E+00
  0.000000E+00  1.210938E+01  0.000000E+00
  0.000000E+00  1.250000E+01  0.000000E+00
  0.000000E+00  1.289062E+01  0.000000E+00
  0.000000E+00  1.328125E+01  0.000000E+00
  0.000000E+00  1.367188E+01  0.000000E+00
  0.000000E+00  1.406250E+01  0.000000E+00
  0.000000E+00  1.445312E+01  0.000000E+00
  0.000000E+00  1.484375E+01  0.000000E+00
  0.000000E+00  1.523438E+01  0.000000E+00
  0.000000E+00  1.562500E+01  0.000000E+00
  0.000000E+00  1.601562E+01  0.000000E+00
  0.000000E+00  1.640625E+01  0.000000E+00
  0.000000E+00  1.679688E+01  0.000000E+00
  0.000000E+00  1.718750E+01  0.000000E+00
  0.000000E+00  1.757812E+01  0.000000E+00
  0.000000E+00  1.796875E+01  0.000000E+00
  0.000000E+00  1.835938E+01  0.000000E+00
  0.000000E+00  1.875000E+01  0.000000E+00
  0.000000E+00  1.914062E+01  0.000000E+00
  0.000000E+00  1.953125E+01  0.000000E+00
  0.000000E+00  1.992188E+01  0.000000E+00
  0.000000E+00  2.031250E+01  0.000000E+00
  0.000000E+00  2.070312E+01  0.000000E+00
  0.000000E+00  2.109375E+01  0.000000E+00
  0.000000E+00  2.148438E+01  0.000000E+00
  0.000000E+00  2.187500E+01  0.000000E+00
  0.000000E+00  2.226562E+01  0.000000E+00
  0.000000E+00  2.265625E+01  0.000000E+00
  0.000000E+00  2.304688E+01  0.000000E+00
  0.000000E+00  2.343750E+01  0.000000E+00
  0.000000E+00  2.382812E+01  0.000000E+00
  0.000000E+00  2.421875E+01  0.000000E+00
  0.000000E+00  2.460938E+01  0.000000E+00
  3.906250E-01  0.000000E+00  0.000000E+00
  3.906250E-01  3.906250E-01  0.000000E+00
  3.906250E-01  7.812500E-01  0.000000E+00
  3.906250E-01  1.171875E+00  0.000000E+00
  3.906250E-01  1.562500E+00  0.000000E+00
  3.906250E-01  1.953125E+00  0.000000E+00
  3.906250E-01  2.343750E+00  0.000000E+00
  3.906250E-01  2.734375E+00  0.000000E+00
  3.906250E-01  3.125000E+00  0.000000E+00
  3.906250E-01  3.515625E+00  0.000000E+00
  3.906250E-01  3.906250E+00  0.000000E+00
  3.906250E-01  4.296875E+00  0.000000E+00
  3.906250E-01  4.687500E+00  0.000000E+00
  3.906250E-01  5.078125E+00  0.000000E+00
  3.906250E-01  5.468750E+00  0.000000E+00
  3.906250E-01  5.859375E+00  0.000000E+00
  3.906250E-01  6.250000E+00  0.000000E+00
  3.906250E-01  6.640625E+00  0.000000E+00
  3.906250E-01  7.031250E+00  0.000000E+00
  3.906250E-01  7.421875E+00  0.000000E+00
  3.906250E-01  7.812500E+00  0.000000E+00
  3.906250E-01  8.203125E+00  0.000000E+00
  3.906250E-01  8.593750E+00  0.000000E+00
  3.906250E-01  8.984375E+00  0.000000E+00
  3.906250E-01  9.375000E+00  0.000000E+00
  3.906250E-01  9.765625E+00  0.000000E+00
  3.906250E-01  1.015625E+01  0.000000E+00
  3.906250E-01  1.054688E+01  0.000000E+00
  3.906250E-01  1.093750E+01  0.000000E+00
  3.906250E-01  1.132812E+01  0.000000E+00
  3.906250E-01  1.171875E+01  0.000000E+00
  3.906250E-01  1.210938E+01  0.000000E+00
  3.906250E-01  1.250000E+01  0.000000E+00
  3.906250E-01  1.289062E+01  0.000000E+00
  3.906250E-01  1.328125E+01  0.000000E+00
  3.906250E-01  1.367188E+01  0.000000E+00
  3.906250E-01  1.406250E+01  0.000000E+00
  3.906250E-01  1.445312E+01  0.000000E+00
  3.906250E-01  1.484375E+01  0.000000E+00
  3.906250E-01  1.523438E+01  0.000000E+00
  3.906250E-01  1.562500E+01  0.000000E+00
  3.906250E-01  1.601562E+01  0.000000E+00
  3.906250E-01  1.640625E+01  0.000000E+00
  3.906250E-01  1.679688E+01  0.000000E+00
  3.906250E-01  1.718750E+01  0.000000E+00
  3.906250E-01  1.757812E+01  0.000000E+00
  3.906250E-01  1.796875E+01  0.000000E+00
  3.906250E-01  1.835938E+01  0.000000E+00
  3.906250E-01  1.875000E+01  0.000000E+00
  3.906250E-01  1.914062E+01  0.000000E+00
  3.906250E-01  1.953125E+01  0.000000E+00
  3.906250E-01  1.992188E+01  0.000000E+00
  3.906250E-01  2.031250E+01  0.000000E+00
  3.906250E-01  2.070312E+01  0.000000E+00
  3.906250E-01  2.109375E+01  0.000000E+00
  3.906250E-01  2.148438E+01  0.000000E+00
  3.906250E-01  2.187500E+01  0.000000E+00
  3.906250E-01  2.226562E+01  0.000000E+00
  3.906250E-01  2.265625E+01  0.000000E+00
  3.906250E-01  2.304688E+01  0.000000E+00
  3.906250E-01  2.343750E+01  0.000000E+00
  3.906250E-01  2.382812E+01  0.000000E+00
  3.906250E-01  2.421875E+01  0.000000E+00
  3.906250E-01  2.460938E+01  0.000000E+00
  7.812500E-01  0.000000E+00  0.000000E+00
  7.812500E-01  3.906250E-01  0.000000E+00
  7.812500E-01  7.812500E-01  0.000000E+00
  7.812500E-01  1.171875E+00  0.000000E+00
  7.812500E-01  1.562500E+00  0.000000E+00
  7.812500E-01  1.953125E+00  0.000000E+00
  7.812500E-01  2.343750E+00  0.000000E+00
  7.812500E-01  2.734375E+00  0.000000E+00
  7.812500E-01  3.125000E+00  0.000000E+00
  7.812500E-01  3.515625E+00  0.000000E+00
  7.812500E-01  3.906250E+00  0.000000E+00
  7.812500E-01  4.296875E+00  0.000000E+00
  7.812500E-01  4.687500E+00  0.000000E+00
  7.812500E-01  5.078125E+00  0.000000E+00
  7.812500E-01  5.468750E+00  0.000000E+00
  7.812500E-01  5.859375E+00  0.000000E+00
  7.812500E-01  6.250000E+00  0.000000E+00
  7.812500E-01  6.640625E+00  0.000000E+00
  7.812500E-01  7.031250E+00  0.000000E+00
  7.812500E-01  7.421875E+00  0.000000E+00
  7.812500E-01  7.812500E+00  0.000000E+00
  7.812500E-01  8.203125E+00  0.000000E+00
  7.812500E-01  8.593750E+00  0.000000E+00
  7.812500E-01  8.984375E+00  0.000000E+00
  7.812500E-01  9.375000E+00  0.000000E+00
  7.812500E-01  9.765625E+00  0.000000E+00
  7.812500E-01  1.015625E+01  0.000000E+00
  7.812500E-01  1.054688E+01  0.000000E+00
  7.812500E-01  1.093750E+01  0.000000E+00
  7.812500E-01  1.132812E+01  0.000000E+00
  7.812500E-01  1.171875E+01  0.000000E+00
  7.812500E-01  1.210938E+01  0.000000E+00
  7.812500E-01  1.250000E+01  0.000000E+00
  7.812500E-01  1.289062E+01  0.000000E+00
  7.812500E-01  1.328125E+01  0.000000E+00
  7.812500E-01  1.367188E+01  0.000000E+00
  7.812500E-01  1.406250E+01  0.000000E+00
  7.812500E-01  1.445312E+01  0.000000E+00
  7.812500E-01  1.484375E+01  0.000000E+00
  7.812500E-01  1.523438E+01  0.000000E+00
  7.812500E-01  1.562500E+01  0.000000E+00
  7.812500E-01  1.601562E+01  0.000000E+00
  7.812500E-01  1.640625E+01  0.000000E+00
  7.812500E-01  1.679688E+01  0.000000E+00
  7.812500E-01  1.718750E+01  0.000000E+00
  7.812500E-01  1.757812E+01  0.000000E+00
  7.812500E-01  1.796875E+01  0.000000E+00
  7.812500E-01  1.835938E+01  0.000000E+00
  7.812500E-01  1.875000E+01  0.000000E+00
  7.812500E-01  1.914062E+01  0.000000E+00
  7.812500E-01  1.953125E+01  0.000000E+00
  7.812500E-01  1.992188E+01  0.000000E+00
  7.812500E-01  2.031250E+01  0.000000E+00
  7.812500E-01  2.070312E+01  0.000000E+00
  7.812500E-01  2.109375E+01  0.000000E+00
  7.812500E-01  2.148438E+01  0.000000E+00
  7.812500E-01  2.187500E+01  0.000000E+00
  7.812500E-01  2.226562E+01  0.000000E+00
  7.812500E-01  2.265625E+01  0.000000E+00
  7.812500E-01  2.304688E+01  0.000000E+00
  7.812500E-01  2.343750E+01  0.000000E+00
  7.812500E-01  2.382812E+01  0.000000E+00
  7.812500E-01  2.421875E+01  0.000000E+00
  7.812500E-01  2.460938E+01  0.000000E+00
  1.171875E+00  0.000000E+00  0.000000E+00
  1.171875E+00  3.906250E-01  0.000000E+00
  1.171875E+00  7.812500E-01  0.000000E+00
  1.171875E+00  1.171875E+00  0.000000E+00
  1.171875E+00  1.562500E+00  0.000000E+00
  1.171875E+00  1.953125E+00  0.000000E+00
  1.171875E+00  2.343750E+00  0.000000E+00
  1.171875E+00  2.734375E+00  0.000000E+00
  1.171875E+00  3.125000E+00  0.000000E+00
  1.171875E+00  3.515625E+00  0.000000E+00
  1.171875E+00  3.906250E+00  0.000000E+00
  1.171875E+00  4.296875E+00  0.000000E+00
  1.171875E+00  4.687500E+00  0.000000E+00
  1.171875E+00  5.078125E+00  0.000000E+00
  1.171875E+00  5.468750E+00  0.000000E+00
  1.171875E+00  5.859375E+00  0.000000E+00
  1.171875E+00  6.250000E+00  0.000000E+00
  1.171875E+00  6.640625E+00  0.000000E+00
  1.171875E+00  7.031250E+00  0.000000E+00
  1.171875E+00  7.421875E+00  0.000000E+00
  1.171875E+00  7.812500E+00  0.000000E+00
  1.171875E+00  8.203125E+00  0.000000E+00
  1.171875E+00  8.593750E+00  0.000000E+00
  1.171875E+00  8.984375E+00  0.000000E+00
  1.171875E+00  9.375000E+00  0.000000E+00
  1.171875E+00  9.765625E+00  0.000000E+00
  1.171875E+00  1.015625E+01  0.000000E+00
  1.171875E+00  1.054688E+01  0.000000E+00
  1.171875E+00  1.093750E+01  0.000000E+00
  1.171875E+00  1.132812E+01  0.000000E+00
  1.171875E+00  1.171875E+01  0.000000E+00
  1.171875E+00  1.210938E+01  0.000000E+00
  1.171875E+00  1.250000E+01  0.000000E+00
  1.171875E+00  1.289062E+01  0.000000E+00
  1.171875E+00  1.328125E+01  0.000000E+00
  1.171875E+00  1.367188E+01  0.000000E+00
  1.171875E+00  1.406250E+01  0.000000E+00
  1.171875E+00  1.445312E+01  0.000000E+00
[...]
POINT_DATA   4096
SCALARS CON  float  1
LOOKUP_TABLE default
  3.587199E-01
  3.586357E-01
  3.631018E-01
  3.606923E-01
  3.618764E-01
  3.573884E-01
  3.589677E-01
  3.567665E-01
  3.604577E-01
  3.585180E-01
  3.606204E-01
  3.566163E-01
  3.577517E-01
  3.545436E-01
  3.576795E-01
  3.566155E-01
  3.609945E-01
  3.596033E-01
  3.622500E-01
  3.584907E-01
  3.592323E-01
  3.547049E-01
  3.555852E-01
  3.516070E-01
  3.531167E-01
  3.501716E-01
  3.534300E-01
  3.526665E-01
  3.574862E-01
  3.564846E-01
  3.592987E-01
  3.558400E-01
  3.575473E-01
  3.549932E-01
  3.584984E-01
  3.568491E-01
  3.594466E-01
  3.557117E-01
  3.565511E-01
  3.523873E-01
  3.538951E-01
  3.506903E-01
  3.527869E-01
  3.498699E-01
  3.524900E-01
  3.509415E-01
  3.558649E-01
  3.567350E-01
  3.627034E-01
  3.616886E-01
  3.630916E-01
  3.570915E-01
  3.562001E-01
  3.523694E-01
  3.569283E-01
  3.588220E-01
  3.661411E-01
  3.660235E-01
  3.679297E-01
  3.621289E-01
  3.608471E-01
  3.552170E-01
  3.563969E-01
  3.542402E-01
  3.601971E-01
  3.610922E-01
  3.653533E-01
  3.638754E-01
  3.637300E-01
  3.583829E-01
  3.573241E-01
  3.543731E-01
  3.570367E-01
  3.567872E-01
  3.599766E-01
  3.584291E-01
  3.597391E-01
  3.568412E-01
  3.579183E-01
  3.560390E-01
  3.589100E-01
  3.585225E-01
  3.614408E-01
  3.592830E-01
  3.596210E-01
  3.556956E-01
  3.559601E-01
  3.533121E-01
  3.550445E-01
  3.533203E-01
  3.555331E-01
  3.543973E-01
  3.575031E-01
  3.570357E-01
  3.599107E-01
  3.581131E-01
  3.592013E-01
  3.560606E-01
  3.567261E-01
  3.540235E-01
  3.555686E-01
  3.537410E-01
  3.557289E-01
  3.536061E-01
  3.545895E-01
  3.513096E-01
  3.517307E-01
  3.489831E-01
  3.509308E-01
  3.503801E-01
  3.548210E-01
  3.564256E-01
  3.616218E-01
  3.613331E-01
  3.622710E-01
  3.576148E-01
  3.571095E-01
  3.553546E-01
  3.604147E-01
  3.633482E-01
  3.690906E-01
  3.679349E-01
  3.674606E-01
  3.616740E-01
  3.601078E-01
  3.561713E-01
  3.574608E-01
  3.563315E-01
  3.547851E-01
  3.593325E-01
  3.641010E-01
  3.648824E-01
  3.634324E-01
  3.591029E-01
  3.563844E-01
  3.546042E-01
  3.559332E-01
  3.571812E-01
  3.592873E-01
  3.593482E-01
  3.594978E-01
  3.580493E-01
  3.578332E-01
  3.571963E-01
  3.583922E-01
  3.588659E-01
  3.601198E-01
  3.594551E-01
  3.589912E-01
  3.569371E-01
  3.559285E-01
  3.540921E-01
  3.536698E-01
  3.525650E-01
  3.530100E-01
  3.528635E-01
  3.540496E-01
  3.540148E-01
  3.546408E-01
  3.538999E-01
  3.544200E-01
  3.544206E-01
  3.559370E-01
  3.562233E-01
  3.568500E-01
  3.555214E-01
  3.547041E-01
  3.526194E-01
  3.516027E-01
  3.495897E-01
  3.489274E-01
  3.478721E-01
  3.489820E-01
  3.503682E-01
  3.540304E-01
  3.571889E-01
  3.608542E-01
  3.616014E-01
  3.610672E-01
  3.578615E-01
  3.560209E-01
  3.552323E-01
  3.583581E-01
  3.622862E-01
  3.669252E-01
  3.677872E-01
  3.661977E-01
  3.608972E-01
  3.560133E-01
  3.512260E-01
  3.499216E-01
  3.504901E-01
  3.557337E-01
  3.609608E-01
  3.636168E-01
  3.654497E-01
  3.618249E-01
  3.579520E-01
  3.525318E-01
  3.513392E-01
  3.511122E-01
  3.547515E-01
  3.569727E-01
  3.601722E-01
  3.597859E-01
  3.597740E-01
  3.572055E-01
  3.570857E-01
  3.564136E-01
  3.588673E-01
  3.596363E-01
  3.613669E-01
  3.597477E-01
  3.590990E-01
  3.565225E-01
  3.564264E-01
  3.549527E-01
  3.554769E-01
  3.539611E-01
  3.543907E-01
  3.534246E-01
  3.550641E-01
  3.552198E-01
  3.569952E-01
  3.560093E-01
  3.560256E-01
  3.537892E-01
  3.538640E-01
  3.529552E-01
  3.547242E-01
  3.546730E-01
  3.557426E-01
  3.537592E-01
  3.529668E-01
  3.505733E-01
  3.511917E-01
  3.512437E-01
  3.540899E-01
  3.553563E-01
  3.583456E-01
  3.587618E-01
  3.599049E-01
  3.577822E-01
  3.568828E-01
  3.548144E-01
  3.566313E-01
  3.586697E-01
  3.633967E-01
  3.649001E-01
  3.655720E-01
  3.617190E-01
  3.586487E-01
  3.541190E-01
  3.528279E-01
  3.513222E-01
  3.535413E-01
  3.518104E-01
  3.587865E-01
  3.603933E-01
  3.635869E-01
  3.589600E-01
  3.569925E-01
  3.510818E-01
  3.516893E-01
  3.503110E-01
  3.549185E-01
  3.554051E-01
  3.594907E-01
  3.577462E-01
  3.593576E-01
  3.562225E-01
  3.581035E-01
  3.565228E-01
  3.601211E-01
  3.592700E-01
  3.621352E-01
  3.593757E-01
  3.600911E-01
  3.558155E-01
  3.559675E-01
  3.520427E-01
  3.530805E-01
  3.503077E-01
  3.525004E-01
  3.507354E-01
  3.536478E-01
  3.521938E-01
  3.550406E-01
  3.532937E-01
  3.559367E-01
  3.542246E-01
  3.569955E-01
  3.551812E-01
  3.574189E-01
  3.546671E-01
  3.557880E-01
  3.521180E-01
  3.530239E-01
  3.503158E-01
  3.532196E-01
  3.527873E-01
  3.571957E-01
  3.567807E-01
  3.599524E-01
  3.576815E-01
  3.589876E-01
  3.551770E-01
  3.556147E-01
  3.522066E-01
  3.545581E-01
  3.541024E-01
  3.591012E-01
  3.593715E-01
  3.625128E-01
  3.589562E-01
  3.580498E-01
  3.519749E-01
  3.509152E-01
  3.472461E-01
  3.504925E-01
  3.549883E-01
  3.600363E-01
  3.593399E-01
  3.621771E-01
  3.570441E-01
  3.556607E-01
  3.491802E-01
  3.499286E-01
  3.478988E-01
  3.531350E-01
  3.537161E-01
  3.589268E-01
  3.571405E-01
  3.592058E-01
  3.553065E-01
  3.574682E-01
  3.557574E-01
  3.606788E-01
  3.602999E-01
  3.640853E-01
  3.605518E-01
  3.609871E-01
  3.556236E-01
  3.561396E-01
  3.521258E-01
  3.540835E-01
  3.510954E-01
  3.538569E-01
  3.520159E-01
  3.563997E-01
  3.558927E-01
  3.602370E-01
  3.577404E-01
  3.590884E-01
  3.544232E-01
  3.558008E-01
  3.532799E-01
  3.572785E-01
  3.559464E-01
  3.589316E-01
  3.552712E-01
  3.565985E-01
  3.534759E-01
  3.572427E-01
  3.566692E-01
  3.611885E-01
  3.589438E-01
  3.606387E-01
  3.561367E-01
  3.569400E-01
  3.526814E-01
  3.542878E-01
  3.513911E-01
  3.549229E-01
  3.540086E-01
  3.585355E-01
  3.568155E-01
  3.592112E-01
  3.553565E-01
  3.567931E-01
  3.532686E-01
  3.555254E-01
  3.528226E-01
  3.560852E-01
  3.523756E-01
  3.570163E-01
  3.565921E-01
  3.596323E-01
  3.559929E-01
  3.560933E-01
  3.515021E-01
  3.528955E-01
  3.509811E-01
  3.549557E-01
  3.543466E-01
  3.579709E-01
  3.557487E-01
  3.577201E-01
  3.550039E-01
  3.580470E-01
  3.573364E-01
  3.620255E-01
  3.613890E-01
  3.643079E-01
  3.606090E-01
  3.604005E-01
  3.546685E-01
  3.539972E-01
  3.494328E-01
  3.509382E-01
  3.488677E-01
  3.524771E-01
  3.517625E-01
  3.560032E-01
  3.552332E-01
  3.588474E-01
  3.569809E-01
  3.595356E-01
  3.571726E-01
  3.598812E-01
  3.578176E-01
  3.602639E-01
  3.570990E-01
  3.580586E-01
  3.539607E-01
  3.553508E-01
  3.532570E-01
  3.573784E-01
  3.572845E-01
  3.614700E-01
  3.592927E-01
  3.605292E-01
  3.561673E-01
  3.567313E-01
  3.528880E-01
  3.542877E-01
  3.512467E-01
  3.535080E-01
  3.515652E-01
  3.549593E-01
  3.536883E-01
  3.569954E-01
  3.548725E-01
  3.568853E-01
  3.534262E-01
  3.545083E-01
  3.510803E-01
  3.534697E-01
  3.551952E-01
  3.569952E-01
  3.562307E-01
  3.585127E-01
  3.566008E-01
  3.568083E-01
  3.534321E-01
  3.538697E-01
  3.524018E-01
  3.553171E-01
  3.555032E-01
  3.583766E-01
  3.569089E-01
  3.577140E-01
  3.553167E-01
  3.572174E-01
  3.575111E-01
  3.620251E-01
  3.628771E-01
  3.651047E-01
  3.617257E-01
  3.599715E-01
  3.547945E-01
  3.538230E-01
  3.511709E-01
  3.529634E-01
  3.523160E-01
  3.551999E-01
  3.552327E-01
  3.588962E-01
  3.595201E-01
  3.627554E-01
  3.613586E-01
  3.617361E-01
  3.583263E-01
  3.587764E-01
  3.572442E-01
  3.596858E-01
  3.585892E-01
  3.596253E-01
  3.565790E-01
  3.569151E-01
  3.552782E-01
  3.582337E-01
  3.584952E-01
  3.611767E-01
  3.591238E-01
  3.591575E-01
  3.557938E-01
  3.561370E-01
  3.538681E-01
  3.551850E-01
  3.536630E-01
  3.557468E-01
  3.548834E-01
  3.569589E-01
  3.551680E-01
  3.560856E-01
  3.540130E-01
  3.559206E-01
  3.552846E-01
  3.577525E-01
  3.562658E-01
  3.573022E-01
  3.511979E-01
  3.530423E-01
  3.539515E-01
  3.567260E-01
  3.572186E-01
  3.586514E-01
  3.577005E-01
  3.583284E-01
  3.574406E-01
  3.586116E-01
  3.580333E-01
  3.587584E-01
  3.571216E-01
  3.570480E-01
  3.558390E-01
  3.576095E-01
  3.588151E-01
  3.621550E-01
  3.629387E-01
  3.637811E-01
  3.609530E-01
  3.586067E-01
  3.542850E-01
  3.525436E-01
  3.506015E-01
  3.520153E-01
  3.528021E-01
  3.555925E-01
  3.562298E-01
  3.580101E-01
  3.576262E-01
  3.588726E-01
  3.584429E-01
  3.599886E-01
  3.600146E-01
  3.617832E-01
  3.612241E-01
  3.613300E-01
  3.585235E-01
  3.569142E-01
  3.539467E-01
  3.538934E-01
  3.534756E-01
  3.557278E-01
  3.563482E-01
  3.581197E-01
  3.573404E-01
  3.578721E-01
  3.566947E-01
  3.574732E-01
  3.564917E-01
  3.569972E-01
  3.555536E-01
  3.559888E-01
  3.550838E-01
  3.562876E-01
  3.558275E-01
  3.569437E-01
  3.560337E-01
  3.565530E-01
  3.549300E-01
  3.546284E-01
  3.523825E-01
  3.522078E-01
  3.529605E-01
  3.531767E-01
  3.539089E-01
  3.564652E-01
  3.579330E-01
  3.593378E-01
  3.587263E-01
  3.585901E-01
  3.578386E-01
  3.586762E-01
  3.588992E-01
  3.596411E-01
  3.585107E-01
  3.575807E-01
  3.558999E-01
  3.563769E-01
  3.575797E-01
  3.607231E-01
  3.624613E-01
  3.632659E-01
  3.608729E-01
  3.580827E-01
  3.546091E-01
  3.536110E-01
  3.536303E-01
  3.559407E-01
  3.576012E-01
  3.595461E-01
  3.596781E-01
  3.602748E-01
  3.599307E-01
  3.605439E-01
  3.599289E-01
  3.598090E-01
  3.586233E-01
  3.587151E-01
  3.583130E-01
  3.588372E-01
  3.578290E-01
  3.570275E-01
  3.550884E-01
  3.546537E-01
  3.543110E-01
  3.556590E-01
  3.561228E-01
  3.569872E-01
  3.564371E-01
  3.568566E-01
  3.567638E-01
  3.578397E-01
  3.577219E-01
  3.580913E-01
  3.574815E-01
  3.582973E-01
  3.586840E-01
  3.598466E-01
  3.592073E-01
  3.586206E-01
  3.569502E-01
  3.568206E-01
  3.564112E-01
  3.568966E-01
  3.557143E-01
  3.547461E-01
  3.491473E-01
  3.506270E-01
  3.521573E-01
  3.555069E-01
  3.575325E-01
  3.599328E-01
  3.600661E-01
  3.605809E-01
  3.596197E-01
  3.599360E-01
  3.590827E-01
  3.590873E-01
  3.573765E-01
  3.566655E-01
  3.553162E-01
  3.563115E-01
  3.572967E-01
  3.599606E-01
  3.608712E-01
  3.615481E-01
  3.593827E-01
  3.573414E-01
  3.541181E-01
  3.531787E-01
  3.528137E-01
  3.552409E-01
  3.571492E-01
  3.596063E-01
  3.593424E-01
  3.588122E-01
  3.564985E-01
  3.558267E-01
  3.550843E-01
  3.567011E-01
  3.577990E-01
  3.598528E-01
  3.595586E-01
  3.588833E-01
  3.558616E-01
  3.539191E-01
  3.517224E-01
  3.520531E-01
  3.522358E-01
  3.539178E-01
  3.541890E-01
  3.553598E-01
  3.554012E-01
  3.569825E-01
  3.576010E-01
  3.590783E-01
  3.585034E-01
  3.582704E-01
  3.566379E-01
  3.567963E-01
  3.567682E-01
  3.586460E-01
  3.593341E-01
  3.605458E-01
  3.595791E-01
  3.588581E-01
  3.562165E-01
  3.543609E-01
  3.513913E-01
  3.502609E-01
  3.521632E-01
  3.527295E-01
  3.530323E-01
  3.559658E-01
  3.571487E-01
  3.590538E-01
  3.580419E-01
  3.580566E-01
  3.565478E-01
  3.574108E-01
  3.570602E-01
  3.581989E-01
  3.568432E-01
  3.564442E-01
  3.543765E-01
  3.550014E-01
  3.554498E-01
  3.586775E-01
  3.600641E-01
  3.616985E-01
  3.596372E-01
  3.579490E-01
  3.546486E-01
  3.544389E-01
  3.544524E-01
  3.575419E-01
  3.591257E-01
  3.614204E-01
  3.605569E-01
  3.603669E-01
  3.582251E-01
  3.580352E-01
  3.564335E-01
  3.566601E-01
  3.553284E-01
  3.559389E-01
  3.550815E-01
  3.558780E-01
  3.546610E-01
  3.548308E-01
  3.533716E-01
  3.540768E-01
  3.536975E-01
  3.553162E-01
  3.551270E-01
  3.563439E-01
  3.558031E-01
  3.571799E-01
  3.570074E-01
  3.581908E-01
  3.569331E-01
  3.568708E-01
  3.554604E-01
  3.568529E-01
  3.576513E-01
  3.603844E-01
  3.606185E-01
  3.613569E-01
  3.595936E-01
  3.594160E-01
  3.576890E-01
  3.575556E-01
  3.552895E-01
  3.543954E-01
  3.501002E-01
  3.519736E-01
  3.525404E-01
  3.555443E-01
  3.563447E-01
  3.585885E-01
  3.578324E-01
  3.584067E-01
  3.566168E-01
  3.570474E-01
  3.556048E-01
  3.562138E-01
  3.545500E-01
  3.549577E-01
  3.537644E-01
  3.554978E-01
  3.559972E-01
  3.589606E-01
  3.595217E-01
  3.611759E-01
  3.593439E-01
  3.583559E-01
  3.547484E-01
  3.537350E-01
  3.520885E-01
  3.541921E-01
  3.552612E-01
  3.581848E-01
  3.576946E-01
  3.577328E-01
  3.548582E-01
  3.543642E-01
  3.529196E-01
  3.547729E-01
  3.552041E-01
  3.574360E-01
  3.565385E-01
  3.565077E-01
  3.537213E-01
  3.532142E-01
  3.515200E-01
  3.528750E-01
  3.527441E-01
  3.547318E-01
  3.544200E-01
  3.560331E-01
  3.556151E-01
  3.573220E-01
  3.566910E-01
  3.574988E-01
  3.554872E-01
  3.552154E-01
  3.532484E-01
  3.543406E-01
  3.545126E-01
  3.575330E-01
  3.585183E-01
  3.608784E-01
  3.599100E-01
  3.596965E-01
  3.563944E-01
  3.548323E-01
  3.515811E-01
  3.513123E-01
  3.549268E-01
  3.554189E-01
  3.547963E-01
  3.563277E-01
  3.562724E-01
  3.573450E-01
  3.559932E-01
  3.558065E-01
  3.540885E-01
  3.545643E-01
  3.539147E-01
  3.550188E-01
  3.542072E-01
  3.547612E-01
  3.538122E-01
  3.551937E-01
  3.559037E-01
  3.589636E-01
  3.602794E-01
  3.622000E-01
  3.607942E-01
  3.595361E-01
  3.559860E-01
  3.545921E-01
  3.528804E-01
  3.542247E-01
  3.547692E-01
  3.569378E-01
  3.568376E-01
  3.577216E-01
  3.566210E-01
  3.571153E-01
  3.559032E-01
  3.561367E-01
  3.545494E-01
  3.547032E-01
  3.536118E-01
  3.546182E-01
  3.542064E-01
  3.553693E-01
  3.547265E-01
  3.557085E-01
  3.552155E-01
  3.565299E-01
  3.561408E-01
  3.571045E-01
  3.560590E-01
  3.563915E-01
  3.548962E-01
  3.549052E-01
  3.532697E-01
  3.536472E-01
  3.532057E-01
  3.553532E-01
  3.563676E-01
  3.587115E-01
  3.584159E-01
  3.587385E-01
  3.569082E-01
  3.568975E-01
  3.557335E-01
  3.565709E-01
  3.557352E-01
  3.562536E-01
  3.545357E-01
  3.556783E-01
  3.555015E-01
  3.560674E-01
  3.559731E-01
  3.568655E-01
  3.566926E-01
  3.569035E-01
  3.558076E-01
  3.553396E-01
  3.540192E-01
  3.537323E-01
  3.529871E-01
  3.537415E-01
  3.544166E-01
  3.565306E-01
  3.579429E-01
  3.599583E-01
  3.606455E-01
  3.615789E-01
  3.607493E-01
  3.595676E-01
  3.563674E-01
  3.535773E-01
  3.506191E-01
  3.500777E-01
  3.503266E-01
  3.522622E-01
  3.530779E-01
  3.538488E-01
  3.531090E-01
  3.533586E-01
  3.535290E-01
  3.553007E-01
  3.563286E-01
  3.575424E-01
  3.568431E-01
  3.561767E-01
  3.544733E-01
  3.540574E-01
  3.534915E-01
  3.543639E-01
  3.546505E-01
  3.557451E-01
  3.557351E-01
  3.562246E-01
  3.554606E-01
  3.551922E-01
  3.538729E-01
  3.535002E-01
  3.526891E-01
  3.533253E-01
  3.536246E-01
  3.549786E-01
  3.553367E-01
  3.562103E-01
  3.558505E-01
  3.559567E-01
  3.547721E-01
  3.540869E-01
  3.525595E-01
  3.524394E-01
  3.523574E-01
  3.538236E-01
  3.606671E-01
  3.598450E-01
  3.584201E-01
  3.568750E-01
  3.560960E-01
  3.555675E-01
  3.553604E-01
  3.548456E-01
  3.544688E-01
  3.539390E-01
  3.537397E-01
  3.534738E-01
  3.536325E-01
  3.539565E-01
  3.549841E-01
  3.562640E-01
  3.580035E-01
  3.594914E-01
  3.608495E-01
  3.613514E-01
  3.611015E-01
  3.595041E-01
  3.571744E-01
  3.543324E-01
  3.522169E-01
  3.509848E-01
  3.510986E-01
  3.517502E-01
  3.528663E-01
  3.537960E-01
  3.549887E-01
  3.560461E-01
  3.571220E-01
  3.573612E-01
  3.569713E-01
  3.558402E-01
  3.550425E-01
  3.546603E-01
  3.551040E-01
  3.555644E-01
  3.561095E-01
  3.563124E-01
  3.567852E-01
  3.571354E-01
  3.574411E-01
  3.568174E-01
  3.555388E-01
  3.535835E-01
  3.520923E-01
  3.513055E-01
  3.519418E-01
  3.534698E-01
  3.557850E-01
  3.576511E-01
  3.586347E-01
  3.578361E-01
  3.558740E-01
  3.531716E-01
  3.512414E-01
  3.505490E-01
  3.518292E-01
  3.543135E-01
  3.574754E-01
  3.597297E-01
  3.604066E-01
  3.599084E-01
  3.588581E-01
  3.563814E-01
  3.556074E-01
  3.548666E-01
  3.557882E-01
  3.556774E-01
  3.560661E-01
  3.548190E-01
  3.541927E-01
  3.526503E-01
  3.527848E-01
  3.529830E-01
  3.551675E-01
  3.566674E-01
  3.586789E-01
  3.587757E-01
  3.592704E-01
  3.586497E-01
  3.590448E-01
  3.579106E-01
  3.567089E-01
  3.535040E-01
  3.512346E-01
  3.489974E-01
  3.492936E-01
  3.496946E-01
  3.512943E-01
  3.514910E-01
  3.524860E-01
  3.529366E-01
  3.552471E-01
  3.569941E-01
  3.592276E-01
  3.590670E-01
  3.584500E-01
  3.560075E-01
  3.547017E-01
  3.531802E-01
  3.536449E-01
  3.538750E-01
  3.554825E-01
  3.559543E-01
  3.568306E-01
  3.557564E-01
  3.548127E-01
  3.524845E-01
  3.515842E-01
  3.508126E-01
  3.524222E-01
  3.539956E-01
  3.566064E-01
  3.572328E-01
  3.574320E-01
  3.554540E-01
  3.540672E-01
  3.518826E-01
  3.511984E-01
  3.501506E-01
  3.510367E-01
  3.521824E-01
  3.554731E-01
  3.579763E-01
  3.649277E-01
  3.623592E-01
  3.605181E-01
  3.565893E-01
  3.555063E-01
  3.533710E-01
  3.539235E-01
  3.527483E-01
  3.536498E-01
  3.524950E-01
  3.533330E-01
  3.522374E-01
  3.534342E-01
  3.530374E-01
  3.550181E-01
  3.550271E-01
  3.567682E-01
  3.560663E-01
  3.571792E-01
  3.563153E-01
  3.575514E-01
  3.565161E-01
  3.569224E-01
  3.547060E-01
  3.543690E-01
  3.524285E-01
  3.531895E-01
  3.524909E-01
  3.541080E-01
  3.539505E-01
  3.562180E-01
  3.568612E-01
  3.594583E-01
  3.591538E-01
  3.595408E-01
  3.568329E-01
  3.560171E-01
  3.538467E-01
  3.545813E-01
  3.538686E-01
  3.554164E-01
  3.551357E-01
  3.571240E-01
  3.570582E-01
  3.583314E-01
  3.562625E-01
  3.549948E-01
  3.513535E-01
  3.505624E-01
  3.494160E-01
  3.520048E-01
  3.536948E-01
  3.574940E-01
  3.583017E-01
  3.595402E-01
  3.571350E-01
  3.557935E-01
  3.524292E-01
  3.520355E-01
  3.512335E-01
  3.542446E-01
  3.566396E-01
  3.614464E-01
  3.632087E-01
  3.613581E-01
  3.593675E-01
  3.591312E-01
  3.553561E-01
  3.551797E-01
  3.528720E-01
  3.543326E-01
  3.529100E-01
  3.543066E-01
  3.522804E-01
  3.531361E-01
  3.511374E-01
  3.527988E-01
  3.521701E-01
  3.550553E-01
  3.545871E-01
  3.562435E-01
  3.538743E-01
  3.543940E-01
  3.525983E-01
  3.548855E-01
  3.544800E-01
  3.565145E-01
  3.543738E-01
  3.547044E-01
  3.523176E-01
  3.538922E-01
  3.530305E-01
  3.551704E-01
  3.538250E-01
  3.555054E-01
  3.547418E-01
  3.578946E-01
  3.581864E-01
  3.607601E-01
  3.587259E-01
  3.584075E-01
  3.544397E-01
  3.539253E-01
  3.513880E-01
  3.531379E-01
  3.528390E-01
  3.560658E-01
  3.559087E-01
  3.577967E-01
  3.552253E-01
  3.546950E-01
  3.509362E-01
  3.510594E-01
  3.495879E-01
  3.525655E-01
  3.532077E-01
  3.566374E-01
  3.559753E-01
  3.573606E-01
  3.552475E-01
  3.564977E-01
  3.551427E-01
  3.569802E-01
  3.554899E-01
  3.569803E-01
  3.558764E-01
  3.586839E-01
  3.587920E-01
  3.622666E-01
  3.589790E-01
  3.592713E-01
  3.553277E-01
  3.557299E-01
  3.523339E-01
  3.533083E-01
  3.504526E-01
  3.520231E-01
  3.499219E-01
  3.523390E-01
  3.510324E-01
  3.540270E-01
  3.528827E-01
  3.554759E-01
  3.533208E-01
  3.546430E-01
  3.516070E-01
  3.530302E-01
  3.512077E-01
  3.543462E-01
  3.538000E-01
  3.571520E-01
  3.558196E-01
  3.581676E-01
  3.562866E-01
  3.585908E-01
  3.567395E-01
  3.589084E-01
  3.570429E-01
  3.597228E-01
  3.586571E-01
  3.614865E-01
  3.590967E-01
  3.594872E-01
  3.549879E-01
  3.549520E-01
  3.519066E-01
  3.540636E-01
  3.527783E-01
  3.558791E-01
  3.550984E-01
  3.585914E-01
  3.576559E-01
  3.597990E-01
  3.562785E-01
  3.557386E-01
  3.510194E-01
  3.514306E-01
  3.493280E-01
  3.526572E-01
  3.526001E-01
  3.566568E-01
  3.561703E-01
  3.592794E-01
  3.578616E-01
  3.603718E-01
  3.586399E-01
  3.609496E-01
  3.590337E-01
  3.613280E-01
  3.596908E-01
  3.623274E-01
  3.605682E-01
  3.565585E-01
  3.552312E-01
  3.573675E-01
  3.549213E-01
  3.561812E-01
  3.535509E-01
  3.550315E-01
  3.525781E-01
  3.539943E-01
  3.514457E-01
  3.530531E-01
  3.511849E-01
  3.538524E-01
  3.529873E-01
  3.559861E-01
  3.542654E-01
  3.554244E-01
  3.519059E-01
  3.525908E-01
  3.504990E-01
  3.536703E-01
  3.534914E-01
  3.568469E-01
  3.553093E-01
  3.571904E-01
  3.552651E-01
  3.577846E-01
  3.564156E-01
  3.585271E-01
  3.560439E-01
  3.574535E-01
  3.554414E-01
  3.580621E-01
  3.568099E-01
  3.589310E-01
  3.561172E-01
  3.565617E-01
  3.529179E-01
  3.537295E-01
  3.515474E-01
  3.544223E-01
  3.542291E-01
  3.582569E-01
  3.576854E-01
  3.598003E-01
  3.565345E-01
  3.564768E-01
  3.525972E-01
  3.535259E-01