# vtk DataFile Version 2.0
title
ASCII
DATASET STRUCTURED_GRID
DIMENSIONS   64   64    1
POINTS   4096  float
  0.000000E+00  0.000000E+00  0.000000E+00
  0.000000E+00  3.906250E-01  0.000000E+00
  0.000000E+00  7.812500E-01  0.000000E+00
  0.000000E+00  1.171875E+00  0.000000E+00
  0.000000E+00  1.562500E+00  0.000000E+00
  0.000000E+00  1.953125E+00  0.000000E+00
  0.000000E+00  2.343750E+00  0.000000E+00
  0.000000E+00  2.734375E+00  0.000000E+00
  0.000000E+00  3.125000E+00  0.000000E+00
  0.000000E+00  3.515625E+00  0.000000E+00
  0.000000E+00  3.906250E+00  0.000000E+00
  0.000000E+00  4.296875E+00  0.000000E+00
  0.000000E+00  4.687500E+00  0.000000E+00
  0.000000E+00  5.078125E+00  0.000000E+00
  0.000000E+00  5.468750E+00  0.000000E+00
  0.000000E+00  5.859375E+00  0.000000E+00
  0.000000E+00  6.250000E+00  0.000000E+00
  0.000000E+00  6.640625E+00  0.000000E+00
  0.000000E+00  7.031250E+00  0.000000E+00
  0.000000E+00  7.421875E+00  0.000000E+00
  0.000000E+00  7.812500E+00  0.000000E+00
  0.000000E+00  8.203125E+00  0.000000E+00
  0.000000E+00  8.593750E+00  0.000000E+00
  0.000000E+00  8.984375E+00  0.000000E+00
  0.000000E+00  9.375000E+00  0.000000E+00
  0.000000E+00  9.765625E+00  0.000000E+00
  0.000000E+00  1.015625E+01  0.000000E+00
  0.000000E+00  1.054688E+01  0.000000E+00
  0.000000E+00  1.093750E+01  0.000000E+00
  0.000000E+00  1.132812E+01  0.000000E+00
  0.000000E+00  1.171875E+01  0.000000E+00
  0.000000E+00  1.210938E+01  0.000000E+00
  0.000000E+00  1.250000E+01  0.000000E+00
  0.000000E+00  1.289062E+01  0.000000E+00
  0.000000E+00  1.328125E+01  0.000000E+00
  0.000000E+00  1.367188E+01  0.000000E+00
  0.000000E+00  1.406250E+01  0.000000E+00
  0.000000E+00  1.445312E+01  0.000000E+00
  0.000000E+00  1.484375E+01  0.000000E+00
  0.000000E+00  1.523438E+01  0.000000E+00
  0.000000E+00  1.562500E+01  0.000000E+00
  0.000000E+00  1.601562E+01  0.000000E+00
  0.000000E+00  1.640625E+01  0.000000E+00
  0.000000E+00  1.679688E+01  0.000000E+00
  0.000000E+00  1.718750E+01  0.000000E+00
  0.000000E+00  1.757812E+01  0.000000E+00
  0.000000E+00  1.796875E+01  0.000000E+00
  0.000000E+00  1.835938E+01  0.000000E+00
  0.000000E+00  1.875000E+01  0.000000E+00
  0.000000E+00  1.914062E+01  0.000000E+00
  0.000000E+00  1.953125E+01  0.000000E+00
  0.000000E+00  1.992188E+01  0.000000E+00
  0.000000E+00  2.031250E+01  0.000000E+00
  0.000000E+00  2.070312E+01  0.000000E+00
  0.000000E+00  2.109375E+01  0.000000E+00
  0.000000E+00  2.148438E+01  0.000000E+00
  0.000000E+00  2.187500E+01  0.000000E+00
  0.000000E+00  2.226562E+01  0.000000E+00
  0.000000E+00  2.265625E+01  0.000000E+00
  0.000000E+00  2.304688E+01  0.000000E+00
  0.000000E+00  2.343750E+01  0.000000E+00
  0.000000E+00  2.382812E+01  0.000000E+00
  0.000000E+00  2.421875E+01  0.000000E+00
  0.000000E+00  2.460938E+01  0.000000E+00
  3.906250E-01  0.000000E+00  0.000000E+00
  3.906250E-01  3.906250E-01  0.000000E+00
  3.906250E-01  7.812500E-01  0.000000E+00
  3.906250E-01  1.171875E+00  0.000000E+00
  3.906250E-01  1.562500E+00  0.000000E+00
  3.906250E-01  1.953125E+00  0.000000E+00
  3.906250E-01  2.343750E+00  0.000000E+00
  3.906250E-01  2.734375E+00  0.000000E+00
  3.906250E-01  3.125000E+00  0.000000E+00
  3.906250E-01  3.515625E+00  0.000000E+00
  3.906250E-01  3.906250E+00  0.000000E+00
  3.906250E-01  4.296875E+00  0.000000E+00
  3.906250E-01  4.687500E+00  0.000000E+00
  3.906250E-01  5.078125E+00  0.000000E+00
  3.906250E-01  5.468750E+00  0.000000E+00
  3.906250E-01  5.859375E+00  0.000000E+00
  3.906250E-01  6.250000E+00  0.000000E+00
  3.906250E-01  6.640625E+00  0.000000E+00
  3.906250E-01  7.031250E+00  0.000000E+00
  3.906250E-01  7.421875E+00  0.000000E+00
  3.906250E-01  7.812500E+00  0.000000E+00
  3.906250E-01  8.203125E+00  0.000000E+00
  3.906250E-01  8.593750E+00  0.000000E+00
  3.906250E-01  8.984375E+00  0.000000E+00
  3.906250E-01  9.375000E+00  0.000000E+00
  3.906250E-01  9.765625E+00  0.000000E+00
  3.906250E-01  1.015625E+01  0.000000E+00
  3.906250E-01  1.054688E+01  0.000000E+00
  3.906250E-01  1.093750E+01  0.000000E+00
  3.906250E-01  1.132812E+01  0.000000E+00
  3.906250E-01  1.171875E+01  0.000000E+00
  3.906250E-01  1.210938E+01  0.000000E+00
  3.906250E-01  1.250000E+01  0.000000E+00
  3.906250E-01  1.289062E+01  0.000000E+00
  3.906250E-01  1.328125E+01  0.000000E+00
  3.906250E-01  1.367188E+01  0.000000E+00
  3.906250E-01  1.406250E+01  0.000000E+00
  3.906250E-01  1.445312E+01  0.000000E+00
  3.906250E-01  1.484375E+01  0.000000E+00
  3.906250E-01  1.523438E+01  0.000000E+00
  3.906250E-01  1.562500E+01  0.000000E+00
  3.906250E-01  1.601562E+01  0.000000E+00
  3.906250E-01  1.640625E+01  0.000000E+00
  3.906250E-01  1.679688E+01  0.000000E+00
  3.906250E-01  1.718750E+01  0.000000E+00
  3.906250E-01  1.757812E+01  0.000000E+00
  3.906250E-01  1.796875E+01  0.000000E+00
  3.906250E-01  1.835938E+01  0.000000E+00
  3.906250E-01  1.875000E+01  0.000000E+00
  3.906250E-01  1.914062E+01  0.000000E+00
  3.906250E-01  1.953125E+01  0.000000E+00
  3.906250E-01  1.992188E+01  0.000000E+00
  3.906250E-01  2.031250E+01  0.000000E+00
  3.906250E-01  2.070312E+01  0.000000E+00
  3.906250E-01  2.109375E+01  0.000000E+00
  3.906250E-01  2.148438E+01  0.000000E+00
  3.906250E-01  2.187500E+01  0.000000E+00
  3.906250E-01  2.226562E+01  0.000000E+00
  3.906250E-01  2.265625E+01  0.000000E+00
  3.906250E-01  2.304688E+01  0.000000E+00
  3.906250E-01  2.343750E+01  0.000000E+00
  3.906250E-01  2.382812E+01  0.000000E+00
  3.906250E-01  2.421875E+01  0.000000E+00
  3.906250E-01  2.460938E+01  0.000000E+00
  7.812500E-01  0.000000E+00  0.000000E+00
  7.812500E-01  3.906250E-01  0.000000E+00
  7.812500E-01  7.812500E-01  0.000000E+00
  7.812500E-01  1.171875E+00  0.000000E+00
  7.812500E-01  1.562500E+00  0.000000E+00
  7.812500E-01  1.953125E+00  0.000000E+00
  7.812500E-01  2.343750E+00  0.000000E+00
  7.812500E-01  2.734375E+00  0.000000E+00
  7.812500E-01  3.125000E+00  0.000000E+00
  7.812500E-01  3.515625E+00  0.000000E+00
  7.812500E-01  3.906250E+00  0.000000E+00
  7.812500E-01  4.296875E+00  0.000000E+00
  7.812500E-01  4.687500E+00  0.000000E+00
  7.812500E-01  5.078125E+00  0.000000E+00
  7.812500E-01  5.468750E+00  0.000000E+00
  7.812500E-01  5.859375E+00  0.000000E+00
  7.812500E-01  6.250000E+00  0.000000E+00
  7.812500E-01  6.640625E+00  0.000000E+00
  7.812500E-01  7.031250E+00  0.000000E+00
  7.812500E-01  7.421875E+00  0.000000E+00
  7.812500E-01  7.812500E+00  0.000000E+00
  7.812500E-01  8.203125E+00  0.000000E+00
  7.812500E-01  8.593750E+00  0.000000E+00
  7.812500E-01  8.984375E+00  0.000000E+00
  7.812500E-01  9.375000E+00  0.000000E+00
  7.812500E-01  9.765625E+00  0.000000E+00
  7.812500E-01  1.015625E+01  0.000000E+00
  7.812500E-01  1.054688E+01  0.000000E+00
  7.812500E-01  1.093750E+01  0.000000E+00
  7.812500E-01  1.132812E+01  0.000000E+00
  7.812500E-01  1.171875E+01  0.000000E+00
  7.812500E-01  1.210938E+01  0.000000E+00
  7.812500E-01  1.250000E+01  0.000000E+00
  7.812500E-01  1.289062E+01  0.000000E+00
  7.812500E-01  1.328125E+01  0.000000E+00
  7.812500E-01  1.367188E+01  0.000000E+00
  7.812500E-01  1.406250E+01  0.000000E+00
  7.812500E-01  1.445312E+01  0.000000E+00
  7.812500E-01  1.484375E+01  0.000000E+00
  7.812500E-01  1.523438E+01  0.000000E+00
  7.812500E-01  1.562500E+01  0.000000E+00
  7.812500E-01  1.601562E+01  0.000000E+00
  7.812500E-01  1.640625E+01  0.000000E+00
  7.812500E-01  1.679688E+01  0.000000E+00
  7.812500E-01  1.718750E+01  0.000000E+00
  7.812500E-01  1.757812E+01  0.000000E+00
  7.812500E-01  1.796875E+01  0.000000E+00
  7.812500E-01  1.835938E+01  0.000000E+00
  7.812500E-01  1.875000E+01  0.000000E+00
  7.812500E-01  1.914062E+01  0.000000E+00
  7.812500E-01  1.953125E+01  0.000000E+00
  7.812500E-01  1.992188E+01  0.000000E+00
  7.812500E-01  2.031250E+01  0.000000E+00
  7.812500E-01  2.070312E+01  0.000000E+00
  7.812500E-01  2.109375E+01  0.000000E+00
  7.812500E-01  2.148438E+01  0.000000E+00
  7.812500E-01  2.187500E+01  0.000000E+00
  7.812500E-01  2.226562E+01  0.000000E+00
  7.812500E-01  2.265625E+01  0.000000E+00
  7.812500E-01  2.304688E+01  0.000000E+00
  7.812500E-01  2.343750E+01  0.000000E+00
  7.812500E-01  2.382812E+01  0.000000E+00
  7.812500E-01  2.421875E+01  0.000000E+00
  7.812500E-01  2.460938E+01  0.000000E+00
  1.171875E+00  0.000000E+00  0.000000E+00
  1.171875E+00  3.906250E-01  0.000000E+00
  1.171875E+00  7.812500E-01  0.000000E+00
  1.171875E+00  1.171875E+00  0.000000E+00
  1.171875E+00  1.562500E+00  0.000000E+00
  1.171875E+00  1.953125E+00  0.000000E+00
  1.171875E+00  2.343750E+00  0.000000E+00
  1.171875E+00  2.734375E+00  0.000000E+00
  1.171875E+00  3.125000E+00  0.000000E+00
  1.171875E+00  3.515625E+00  0.000000E+00
  1.171875E+00  3.906250E+00  0.000000E+00
  1.171875E+00  4.296875E+00  0.000000E+00
  1.171875E+00  4.687500E+00  0.000000E+00
  1.171875E+00  5.078125E+00  0.000000E+00
  1.171875E+00  5.468750E+00  0.000000E+00
  1.171875E+00  5.859375E+00  0.000000E+00
  1.171875E+00  6.250000E+00  0.000000E+00
  1.171875E+00  6.640625E+00  0.000000E+00
  1.171875E+00  7.031250E+00  0.000000E+00
  1.171875E+00  7.421875E+00  0.000000E+00
  1.171875E+00  7.812500E+00  0.000000E+00
  1.171875E+00  8.203125E+00  0.000000E+00
  1.171875E+00  8.593750E+00  0.000000E+00
  1.171875E+00  8.984375E+00  0.000000E+00
  1.171875E+00  9.375000E+00  0.000000E+00
  1.171875E+00  9.765625E+00  0.000000E+00
  1.171875E+00  1.015625E+01  0.000000E+00
  1.171875E+00  1.054688E+01  0.000000E+00
  1.171875E+00  1.093750E+01  0.000000E+00
  1.171875E+00  1.132812E+01  0.000000E+00
  1.171875E+00  1.171875E+01  0.000000E+00
  1.171875E+00  1.210938E+01  0.000000E+00
  1.171875E+00  1.250000E+01  0.000000E+00
  1.171875E+00  1.289062E+01  0.000000E+00
  1.171875E+00  1.328125E+01  0.000000E+00
  1.171875E+00  1.367188E+01  0.000000E+00
  1.171875E+00  1.406250E+01  0.000000E+00
  1.171875E+00  1.445312E+01  0.000000E+00
[...]
POINT_DATA   4096
SCALARS CON  float  1
LOOKUP_TABLE default
  3.763308E-01
  3.761179E-01
  3.807910E-01
  3.783334E-01
  3.793643E-01
  3.744947E-01
  3.761193E-01
  3.741510E-01
  3.782838E-01
  3.763294E-01
  3.782467E-01
  3.738221E-01
  3.748586E-01
  3.715768E-01
  3.748726E-01
  3.738385E-01
  3.784456E-01
  3.771201E-01
  3.798605E-01
  3.758415E-01
  3.764085E-01
  3.716753E-01
  3.726951E-01
  3.687545E-01
  3.703392E-01
  3.671810E-01
  3.704631E-01
  3.698631E-01
  3.752653E-01
  3.746053E-01
  3.774981E-01
  3.735459E-01
  3.749201E-01
  3.722452E-01
  3.761202E-01
  3.746299E-01
  3.771932E-01
  3.729966E-01
  3.736142E-01
  3.693757E-01
  3.711877E-01
  3.681179E-01
  3.703516E-01
  3.672405E-01
  3.697236E-01
  3.678811E-01
  3.728337E-01
  3.738816E-01
  3.804162E-01
  3.796935E-01
  3.810768E-01
  3.744239E-01
  3.729748E-01
  3.688212E-01
  3.737642E-01
  3.762471E-01
  3.842429E-01
  3.842219E-01
  3.860060E-01
  3.798874E-01
  3.786757E-01
  3.731188E-01
  3.744310E-01
  3.720103E-01
  3.774705E-01
  3.783928E-01
  3.833135E-01
  3.820781E-01
  3.818805E-01
  3.758174E-01
  3.744743E-01
  3.714453E-01
  3.745666E-01
  3.743786E-01
  3.776391E-01
  3.758208E-01
  3.772245E-01
  3.741681E-01
  3.752279E-01
  3.730166E-01
  3.760282E-01
  3.758138E-01
  3.792219E-01
  3.769802E-01
  3.771416E-01
  3.727043E-01
  3.729891E-01
  3.704102E-01
  3.725542E-01
  3.707929E-01
  3.730355E-01
  3.716525E-01
  3.749422E-01
  3.745082E-01
  3.776074E-01
  3.755837E-01
  3.766571E-01
  3.733544E-01
  3.742513E-01
  3.714766E-01
  3.730828E-01
  3.710062E-01
  3.731323E-01
  3.709915E-01
  3.721593E-01
  3.686104E-01
  3.689256E-01
  3.658390E-01
  3.677795E-01
  3.669979E-01
  3.716142E-01
  3.734640E-01
  3.794767E-01
  3.796089E-01
  3.806173E-01
  3.751223E-01
  3.739763E-01
  3.718678E-01
  3.775480E-01
  3.811527E-01
  3.875215E-01
  3.860676E-01
  3.851709E-01
  3.788489E-01
  3.774602E-01
  3.736707E-01
  3.751939E-01
  3.737054E-01
  3.716648E-01
  3.767851E-01
  3.823931E-01
  3.833995E-01
  3.816760E-01
  3.765542E-01
  3.734577E-01
  3.716142E-01
  3.733533E-01
  3.747886E-01
  3.770629E-01
  3.769998E-01
  3.771938E-01
  3.755803E-01
  3.752976E-01
  3.744084E-01
  3.756649E-01
  3.761990E-01
  3.777320E-01
  3.770303E-01
  3.765444E-01
  3.742706E-01
  3.733480E-01
  3.715555E-01
  3.713662E-01
  3.702045E-01
  3.706467E-01
  3.702908E-01
  3.714937E-01
  3.713119E-01
  3.718919E-01
  3.708659E-01
  3.713894E-01
  3.714864E-01
  3.734684E-01
  3.739427E-01
  3.746218E-01
  3.729560E-01
  3.720647E-01
  3.699556E-01
  3.691599E-01
  3.670129E-01
  3.661583E-01
  3.646569E-01
  3.656125E-01
  3.668856E-01
  3.708605E-01
  3.744094E-01
  3.787723E-01
  3.798561E-01
  3.793569E-01
  3.755528E-01
  3.732263E-01
  3.721335E-01
  3.756333E-01
  3.800461E-01
  3.852095E-01
  3.859551E-01
  3.840119E-01
  3.780746E-01
  3.728905E-01
  3.678139E-01
  3.664940E-01
  3.669862E-01
  3.722672E-01
  3.781963E-01
  3.816900E-01
  3.840076E-01
  3.800110E-01
  3.753707E-01
  3.693115E-01
  3.681029E-01
  3.682064E-01
  3.722963E-01
  3.747511E-01
  3.781342E-01
  3.777811E-01
  3.777021E-01
  3.747690E-01
  3.742899E-01
  3.734195E-01
  3.760871E-01
  3.771508E-01
  3.790771E-01
  3.773118E-01
  3.764997E-01
  3.738690E-01
  3.740405E-01
  3.728517E-01
  3.735543E-01
  3.718244E-01
  3.718730E-01
  3.704689E-01
  3.719657E-01
  3.721685E-01
  3.741695E-01
  3.732910E-01
  3.733737E-01
  3.710571E-01
  3.710989E-01
  3.701431E-01
  3.720696E-01
  3.722427E-01
  3.735646E-01
  3.714893E-01
  3.703776E-01
  3.675624E-01
  3.680781E-01
  3.682223E-01
  3.712652E-01
  3.725585E-01
  3.756679E-01
  3.763160E-01
  3.778060E-01
  3.756790E-01
  3.744588E-01
  3.719304E-01
  3.737146E-01
  3.761331E-01
  3.814711E-01
  3.831939E-01
  3.836075E-01
  3.791000E-01
  3.755241E-01
  3.707090E-01
  3.693744E-01
  3.677414E-01
  3.699086E-01
  3.685623E-01
  3.763401E-01
  3.784056E-01
  3.818381E-01
  3.765658E-01
  3.740374E-01
  3.675741E-01
  3.683694E-01
  3.672109E-01
  3.723717E-01
  3.730225E-01
  3.774089E-01
  3.755222E-01
  3.771216E-01
  3.735934E-01
  3.753942E-01
  3.735839E-01
  3.773620E-01
  3.764625E-01
  3.795532E-01
  3.767293E-01
  3.776744E-01
  3.733442E-01
  3.736981E-01
  3.696550E-01
  3.708160E-01
  3.678085E-01
  3.699717E-01
  3.678782E-01
  3.708296E-01
  3.692552E-01
  3.723125E-01
  3.704516E-01
  3.732153E-01
  3.713452E-01
  3.742620E-01
  3.723242E-01
  3.747600E-01
  3.720069E-01
  3.734273E-01
  3.696286E-01
  3.704929E-01
  3.674354E-01
  3.704958E-01
  3.702014E-01
  3.750395E-01
  3.744964E-01
  3.775696E-01
  3.749159E-01
  3.762944E-01
  3.723817E-01
  3.729550E-01
  3.693343E-01
  3.718018E-01
  3.713245E-01
  3.766911E-01
  3.770112E-01
  3.803316E-01
  3.765012E-01
  3.754984E-01
  3.689892E-01
  3.677526E-01
  3.636842E-01
  3.670361E-01
  3.721138E-01
  3.775164E-01
  3.770211E-01
  3.801068E-01
  3.744563E-01
  3.726288E-01
  3.655889E-01
  3.664640E-01
  3.645678E-01
  3.703216E-01
  3.710608E-01
  3.766238E-01
  3.747321E-01
  3.767954E-01
  3.724423E-01
  3.744928E-01
  3.726081E-01
  3.778989E-01
  3.776537E-01
  3.817386E-01
  3.780199E-01
  3.784834E-01
  3.728706E-01
  3.735182E-01
  3.694030E-01
  3.715595E-01
  3.683690E-01
  3.711076E-01
  3.689549E-01
  3.735513E-01
  3.732373E-01
  3.781161E-01
  3.755380E-01
  3.766877E-01
  3.713413E-01
  3.725311E-01
  3.699390E-01
  3.745140E-01
  3.735251E-01
  3.768769E-01
  3.728343E-01
  3.738565E-01
  3.703750E-01
  3.746382E-01
  3.746188E-01
  3.797573E-01
  3.771555E-01
  3.783299E-01
  3.730903E-01
  3.738644E-01
  3.695527E-01
  3.713849E-01
  3.683156E-01
  3.720135E-01
  3.710943E-01
  3.759398E-01
  3.740996E-01
  3.765455E-01
  3.724929E-01
  3.742277E-01
  3.708141E-01
  3.733604E-01
  3.703651E-01
  3.734899E-01
  3.699182E-01
  3.746771E-01
  3.742560E-01
  3.772491E-01
  3.732460E-01
  3.730923E-01
  3.682734E-01
  3.697377E-01
  3.678831E-01
  3.720879E-01
  3.715758E-01
  3.753419E-01
  3.729960E-01
  3.748705E-01
  3.719778E-01
  3.751363E-01
  3.745677E-01
  3.795310E-01
  3.789403E-01
  3.819407E-01
  3.781799E-01
  3.780058E-01
  3.720646E-01
  3.711805E-01
  3.662871E-01
  3.677633E-01
  3.657375E-01
  3.696017E-01
  3.690157E-01
  3.735369E-01
  3.729641E-01
  3.768169E-01
  3.747922E-01
  3.770646E-01
  3.742846E-01
  3.769333E-01
  3.749572E-01
  3.777324E-01
  3.747044E-01
  3.757346E-01
  3.713686E-01
  3.725533E-01
  3.703337E-01
  3.748501E-01
  3.752970E-01
  3.799720E-01
  3.775794E-01
  3.782495E-01
  3.731866E-01
  3.735510E-01
  3.697623E-01
  3.714392E-01
  3.684159E-01
  3.706579E-01
  3.685066E-01
  3.718500E-01
  3.705000E-01
  3.740018E-01
  3.721282E-01
  3.746185E-01
  3.714307E-01
  3.726645E-01
  3.689947E-01
  3.711961E-01
  3.726718E-01
  3.742077E-01
  3.735821E-01
  3.760004E-01
  3.742085E-01
  3.742721E-01
  3.707960E-01
  3.710804E-01
  3.696396E-01
  3.725437E-01
  3.728569E-01
  3.757414E-01
  3.742994E-01
  3.749144E-01
  3.724123E-01
  3.742576E-01
  3.748430E-01
  3.796837E-01
  3.808718E-01
  3.830774E-01
  3.795483E-01
  3.774363E-01
  3.720113E-01
  3.707701E-01
  3.680884E-01
  3.698948E-01
  3.694190E-01
  3.723179E-01
  3.724394E-01
  3.762335E-01
  3.773148E-01
  3.809089E-01
  3.796132E-01
  3.795336E-01
  3.756269E-01
  3.757687E-01
  3.744910E-01
  3.773335E-01
  3.766162E-01
  3.775488E-01
  3.741449E-01
  3.739736E-01
  3.722654E-01
  3.755278E-01
  3.764134E-01
  3.793250E-01
  3.770466E-01
  3.764685E-01
  3.728091E-01
  3.731659E-01
  3.711951E-01
  3.725671E-01
  3.710121E-01
  3.729662E-01
  3.721908E-01
  3.742401E-01
  3.723452E-01
  3.729490E-01
  3.708597E-01
  3.730528E-01
  3.730807E-01
  3.759883E-01
  3.745857E-01
  3.751898E-01
  3.684678E-01
  3.701444E-01
  3.712648E-01
  3.740988E-01
  3.749014E-01
  3.763720E-01
  3.756005E-01
  3.760583E-01
  3.751748E-01
  3.761543E-01
  3.756892E-01
  3.762806E-01
  3.746420E-01
  3.742693E-01
  3.730944E-01
  3.748778E-01
  3.764790E-01
  3.799340E-01
  3.808847E-01
  3.815014E-01
  3.786493E-01
  3.760568E-01
  3.716940E-01
  3.696412E-01
  3.676941E-01
  3.690604E-01
  3.701788E-01
  3.730319E-01
  3.738166E-01
  3.754447E-01
  3.752180E-01
  3.764465E-01
  3.761569E-01
  3.774997E-01
  3.776014E-01
  3.793817E-01
  3.791575E-01
  3.792304E-01
  3.763888E-01
  3.743749E-01
  3.712844E-01
  3.710288E-01
  3.707933E-01
  3.730708E-01
  3.739057E-01
  3.754945E-01
  3.746092E-01
  3.748271E-01
  3.738117E-01
  3.747666E-01
  3.742258E-01
  3.747389E-01
  3.733284E-01
  3.735296E-01
  3.727113E-01
  3.737870E-01
  3.733170E-01
  3.740845E-01
  3.731375E-01
  3.736141E-01
  3.723607E-01
  3.721525E-01
  3.700192E-01
  3.695470E-01
  3.699272E-01
  3.699117E-01
  3.709716E-01
  3.738449E-01
  3.757987E-01
  3.772617E-01
  3.767149E-01
  3.763314E-01
  3.755804E-01
  3.763089E-01
  3.767340E-01
  3.774552E-01
  3.763857E-01
  3.751274E-01
  3.732772E-01
  3.735107E-01
  3.749421E-01
  3.782664E-01
  3.803357E-01
  3.810034E-01
  3.784628E-01
  3.752582E-01
  3.717219E-01
  3.706739E-01
  3.710718E-01
  3.736331E-01
  3.756208E-01
  3.773509E-01
  3.772100E-01
  3.773486E-01
  3.770692E-01
  3.777953E-01
  3.774931E-01
  3.772685E-01
  3.761034E-01
  3.761268E-01
  3.760319E-01
  3.766073E-01
  3.756352E-01
  3.744460E-01
  3.723299E-01
  3.716937E-01
  3.715894E-01
  3.730244E-01
  3.736082E-01
  3.740921E-01
  3.732881E-01
  3.735155E-01
  3.739091E-01
  3.754800E-01
  3.758320E-01
  3.759926E-01
  3.751837E-01
  3.758182E-01
  3.765960E-01
  3.779517E-01
  3.773113E-01
  3.760615E-01
  3.739106E-01
  3.734887E-01
  3.734625E-01
  3.742307E-01
  3.732717E-01
  3.719525E-01
  3.661545E-01
  3.676464E-01
  3.693655E-01
  3.728889E-01
  3.751541E-01
  3.776444E-01
  3.778063E-01
  3.781712E-01
  3.771526E-01
  3.774834E-01
  3.768434E-01
  3.769406E-01
  3.751809E-01
  3.741618E-01
  3.725836E-01
  3.734606E-01
  3.745868E-01
  3.773709E-01
  3.783899E-01
  3.789807E-01
  3.767326E-01
  3.745329E-01
  3.712672E-01
  3.703175E-01
  3.701927E-01
  3.729604E-01
  3.752663E-01
  3.777637E-01
  3.772155E-01
  3.761230E-01
  3.734260E-01
  3.725684E-01
  3.719415E-01
  3.737370E-01
  3.751806E-01
  3.775289E-01
  3.774356E-01
  3.765559E-01
  3.731390E-01
  3.707792E-01
  3.685735E-01
  3.691652E-01
  3.697520E-01
  3.715272E-01
  3.716180E-01
  3.723726E-01
  3.722256E-01
  3.739229E-01
  3.750558E-01
  3.769908E-01
  3.766218E-01
  3.761274E-01
  3.741670E-01
  3.741318E-01
  3.743039E-01
  3.764344E-01
  3.772743E-01
  3.782893E-01
  3.770768E-01
  3.761297E-01
  3.734808E-01
  3.715851E-01
  3.685819E-01
  3.672996E-01
  3.692080E-01
  3.697491E-01
  3.701761E-01
  3.734662E-01
  3.747928E-01
  3.767194E-01
  3.754168E-01
  3.752271E-01
  3.735592E-01
  3.746132E-01
  3.745067E-01
  3.759722E-01
  3.746012E-01
  3.740191E-01
  3.715161E-01
  3.719263E-01
  3.723353E-01
  3.758994E-01
  3.775584E-01
  3.793757E-01
  3.770899E-01
  3.751289E-01
  3.715276E-01
  3.714062E-01
  3.717087E-01
  3.753596E-01
  3.772639E-01
  3.796125E-01
  3.783012E-01
  3.776737E-01
  3.751970E-01
  3.750716E-01
  3.735335E-01
  3.738693E-01
  3.724778E-01
  3.731989E-01
  3.724089E-01
  3.733207E-01
  3.719327E-01
  3.719433E-01
  3.703090E-01
  3.711814E-01
  3.710305E-01
  3.729454E-01
  3.726956E-01
  3.737427E-01
  3.729538E-01
  3.744993E-01
  3.746805E-01
  3.762841E-01
  3.749024E-01
  3.743839E-01
  3.723599E-01
  3.736553E-01
  3.747369E-01
  3.780244E-01
  3.784492E-01
  3.791396E-01
  3.771048E-01
  3.769343E-01
  3.752906E-01
  3.753364E-01
  3.729210E-01
  3.717893E-01
  3.672799E-01
  3.693325E-01
  3.698792E-01
  3.730613E-01
  3.738055E-01
  3.761272E-01
  3.751003E-01
  3.755273E-01
  3.734637E-01
  3.740633E-01
  3.727741E-01
  3.737244E-01
  3.719744E-01
  3.723065E-01
  3.708040E-01
  3.725675E-01
  3.730283E-01
  3.762325E-01
  3.768365E-01
  3.787253E-01
  3.768426E-01
  3.758806E-01
  3.719564E-01
  3.708315E-01
  3.690454E-01
  3.714976E-01
  3.728760E-01
  3.762287E-01
  3.756496E-01
  3.755272E-01
  3.721974E-01
  3.715671E-01
  3.699423E-01
  3.719611E-01
  3.724368E-01
  3.749434E-01
  3.740124E-01
  3.739788E-01
  3.708575E-01
  3.702946E-01
  3.685514E-01
  3.702460E-01
  3.702334E-01
  3.723802E-01
  3.718593E-01
  3.734833E-01
  3.730254E-01
  3.750599E-01
  3.745314E-01
  3.754343E-01
  3.730077E-01
  3.723681E-01
  3.699016E-01
  3.709621E-01
  3.711752E-01
  3.746251E-01
  3.758874E-01
  3.787129E-01
  3.779082E-01
  3.779021E-01
  3.743702E-01
  3.726214E-01
  3.689553E-01
  3.686131E-01
  3.720821E-01
  3.725887E-01
  3.720012E-01
  3.738010E-01
  3.738620E-01
  3.750030E-01
  3.733777E-01
  3.729501E-01
  3.709665E-01
  3.715213E-01
  3.710069E-01
  3.723973E-01
  3.716207E-01
  3.721693E-01
  3.709939E-01
  3.723004E-01
  3.729319E-01
  3.761917E-01
  3.776867E-01
  3.799004E-01
  3.785150E-01
  3.771969E-01
  3.733177E-01
  3.717386E-01
  3.698844E-01
  3.714233E-01
  3.721570E-01
  3.745956E-01
  3.744854E-01
  3.753791E-01
  3.741809E-01
  3.747725E-01
  3.735096E-01
  3.736896E-01
  3.718181E-01
  3.718639E-01
  3.707219E-01
  3.719720E-01
  3.717085E-01
  3.730372E-01
  3.722818E-01
  3.731961E-01
  3.725416E-01
  3.739168E-01
  3.735309E-01
  3.746297E-01
  3.735782E-01
  3.740340E-01
  3.725066E-01
  3.724764E-01
  3.704757E-01
  3.705252E-01
  3.697830E-01
  3.720691E-01
  3.733492E-01
  3.761144E-01
  3.759780E-01
  3.764556E-01
  3.746149E-01
  3.747197E-01
  3.734969E-01
  3.743106E-01
  3.732416E-01
  3.736268E-01
  3.719358E-01
  3.730953E-01
  3.728582E-01
  3.733144E-01
  3.733529E-01
  3.743820E-01
  3.743192E-01
  3.743791E-01
  3.731487E-01
  3.725593E-01
  3.713077E-01
  3.710110E-01
  3.702766E-01
  3.709807E-01
  3.717956E-01
  3.740269E-01
  3.755292E-01
  3.773872E-01
  3.779896E-01
  3.789588E-01
  3.784476E-01
  3.774562E-01
  3.742204E-01
  3.710023E-01
  3.676417E-01
  3.668686E-01
  3.673270E-01
  3.696028E-01
  3.707630E-01
  3.715422E-01
  3.706817E-01
  3.707175E-01
  3.708809E-01
  3.726840E-01
  3.738351E-01
  3.750181E-01
  3.742978E-01
  3.735385E-01
  3.719108E-01
  3.715815E-01
  3.711773E-01
  3.720106E-01
  3.721887E-01
  3.730532E-01
  3.730015E-01
  3.735293E-01
  3.729470E-01
  3.726872E-01
  3.712836E-01
  3.706402E-01
  3.696910E-01
  3.702935E-01
  3.708162E-01
  3.723510E-01
  3.728638E-01
  3.736959E-01
  3.733757E-01
  3.735229E-01
  3.724577E-01
  3.716523E-01
  3.698951E-01
  3.694595E-01
  3.693558E-01
  3.709619E-01
  3.784106E-01
  3.773027E-01
  3.757062E-01
  3.739830E-01
  3.734412E-01
  3.730394E-01
  3.730516E-01
  3.724442E-01
  3.721115E-01
  3.714492E-01
  3.712955E-01
  3.708538E-01
  3.710270E-01
  3.712731E-01
  3.725299E-01
  3.738842E-01
  3.757792E-01
  3.770962E-01
  3.784473E-01
  3.788736E-01
  3.788576E-01
  3.772752E-01
  3.749553E-01
  3.717370E-01
  3.693882E-01
  3.678835E-01
  3.681253E-01
  3.688422E-01
  3.701625E-01
  3.709924E-01
  3.722443E-01
  3.732833E-01
  3.746330E-01
  3.749079E-01
  3.745462E-01
  3.731118E-01
  3.722643E-01
  3.718801E-01
  3.726923E-01
  3.732930E-01
  3.739232E-01
  3.738038E-01
  3.741404E-01
  3.743698E-01
  3.749244E-01
  3.743421E-01
  3.731057E-01
  3.708538E-01
  3.692574E-01
  3.683037E-01
  3.691043E-01
  3.707465E-01
  3.734701E-01
  3.755691E-01
  3.768102E-01
  3.757948E-01
  3.735595E-01
  3.703268E-01
  3.681366E-01
  3.671558E-01
  3.685227E-01
  3.711294E-01
  3.747666E-01
  3.772813E-01
  3.786894E-01
  3.779729E-01
  3.763815E-01
  3.734221E-01
  3.725987E-01
  3.721019E-01
  3.733781E-01
  3.734610E-01
  3.739465E-01
  3.726589E-01
  3.719175E-01
  3.700844E-01
  3.699565E-01
  3.700797E-01
  3.725772E-01
  3.745104E-01
  3.767781E-01
  3.766793E-01
  3.768151E-01
  3.759817E-01
  3.765549E-01
  3.756912E-01
  3.745655E-01
  3.710166E-01
  3.682786E-01
  3.657309E-01
  3.661388E-01
  3.668503E-01
  3.686968E-01
  3.687763E-01
  3.694906E-01
  3.697555E-01
  3.722717E-01
  3.744278E-01
  3.770295E-01
  3.768832E-01
  3.760559E-01
  3.733355E-01
  3.719523E-01
  3.704750E-01
  3.710566E-01
  3.712972E-01
  3.729170E-01
  3.734187E-01
  3.744427E-01
  3.734443E-01
  3.724538E-01
  3.698695E-01
  3.687321E-01
  3.678584E-01
  3.696924E-01
  3.716810E-01
  3.747553E-01
  3.755385E-01
  3.755408E-01
  3.730595E-01
  3.712214E-01
  3.687306E-01
  3.679163E-01
  3.667180E-01
  3.675477E-01
  3.688539E-01
  3.727060E-01
  3.758691E-01
  3.833422E-01
  3.804542E-01
  3.779231E-01
  3.737342E-01
  3.725055E-01
  3.706358E-01
  3.712753E-01
  3.703711E-01
  3.713057E-01
  3.703262E-01
  3.709805E-01
  3.697500E-01
  3.705716E-01
  3.701791E-01
  3.722113E-01
  3.726295E-01
  3.744743E-01
  3.738462E-01
  3.746543E-01
  3.737380E-01
  3.748762E-01
  3.740605E-01
  3.743989E-01
  3.721522E-01
  3.714877E-01
  3.695377E-01
  3.702731E-01
  3.698377E-01
  3.713680E-01
  3.711332E-01
  3.731084E-01
  3.739361E-01
  3.767955E-01
  3.769864E-01
  3.773605E-01
  3.745284E-01
  3.733155E-01
  3.711559E-01
  3.718775E-01
  3.713392E-01
  3.726768E-01
  3.723285E-01
  3.742191E-01
  3.745585E-01
  3.761052E-01
  3.742640E-01
  3.726334E-01
  3.686839E-01
  3.675472E-01
  3.665819E-01
  3.693606E-01
  3.714871E-01
  3.754096E-01
  3.763667E-01
  3.773145E-01
  3.746393E-01
  3.727493E-01
  3.691357E-01
  3.684478E-01
  3.677573E-01
  3.708994E-01
  3.739071E-01
  3.792766E-01
  3.816708E-01
  3.795555E-01
  3.774544E-01
  3.765918E-01
  3.725163E-01
  3.720977E-01
  3.700471E-01
  3.715821E-01
  3.704106E-01
  3.717554E-01
  3.698879E-01
  3.705816E-01
  3.685242E-01
  3.698221E-01
  3.692150E-01
  3.721543E-01
  3.721291E-01
  3.738104E-01
  3.713542E-01
  3.713652E-01
  3.694980E-01
  3.718594E-01
  3.719954E-01
  3.741738E-01
  3.720476E-01
  3.719317E-01
  3.694832E-01
  3.710957E-01
  3.706981E-01
  3.728814E-01
  3.714544E-01
  3.726439E-01
  3.718509E-01
  3.751183E-01
  3.759588E-01
  3.786679E-01
  3.766738E-01
  3.759341E-01
  3.718026E-01
  3.710090E-01
  3.685343E-01
  3.701444E-01
  3.699969E-01
  3.732320E-01
  3.734245E-01
  3.753927E-01
  3.729648E-01
  3.721141E-01
  3.681819E-01
  3.679876E-01
  3.666659E-01
  3.697674E-01
  3.708486E-01
  3.743367E-01
  3.736821E-01
  3.745775E-01
  3.722136E-01
  3.732317E-01
  3.722092E-01
  3.742317E-01
  3.730073E-01
  3.743374E-01
  3.733674E-01
  3.763080E-01
  3.769273E-01
  3.797874E-01
  3.762872E-01
  3.764818E-01
  3.725115E-01
  3.730297E-01
  3.696453E-01
  3.705955E-01
  3.676022E-01
  3.691429E-01
  3.670339E-01
  3.695625E-01
  3.683067E-01
  3.713962E-01
  3.702679E-01
  3.729213E-01
  3.706954E-01
  3.718942E-01
  3.685734E-01
  3.698037E-01
  3.679202E-01
  3.713171E-01
  3.711184E-01
  3.748051E-01
  3.735111E-01
  3.758009E-01
  3.738405E-01
  3.762779E-01
  3.745244E-01
  3.766891E-01
  3.745783E-01
  3.771350E-01
  3.761472E-01
  3.792874E-01
  3.769938E-01
  3.772017E-01
  3.722758E-01
  3.720386E-01
  3.690410E-01
  3.714434E-01
  3.701885E-01
  3.731488E-01
  3.721252E-01
  3.756552E-01
  3.749440E-01
  3.773711E-01
  3.737955E-01
  3.729883E-01
  3.679235E-01
  3.682804E-01
  3.663018E-01
  3.698833E-01
  3.699159E-01
  3.739952E-01
  3.733972E-01
  3.764652E-01
  3.750253E-01
  3.777077E-01
  3.762053E-01
  3.788059E-01
  3.769678E-01
  3.792367E-01
  3.774487E-01
  3.800371E-01
  3.781837E-01
  3.735801E-01
  3.722561E-01
  3.747260E-01
  3.721261E-01
  3.736486E-01
  3.708507E-01
  3.724989E-01
  3.696784E-01
  3.711159E-01
  3.682785E-01
  3.701789E-01
  3.683008E-01
  3.714048E-01
  3.705376E-01
  3.738935E-01
  3.719408E-01
  3.730191E-01
  3.687872E-01
  3.692432E-01
  3.668971E-01
  3.706919E-01
  3.709158E-01
  3.748688E-01
  3.730739E-01
  3.748813E-01
  3.725964E-01
  3.754832E-01
  3.741849E-01
  3.765979E-01
  3.737060E-01
  3.750587E-01
  3.727568E-01
  3.756991E-01
  3.743236E-01
  3.765643E-01
  3.733440E-01
  3.738707E-01
  3.700260E-01
  3.711044E-01
  3.687296E-01
  3.718027E-01
  3.714360E-01
  3.757745E-01
  3.750798E-01
  3.773770E-01
  3.737449E-01
  3.737065E-01
  3.695018E-01
  3.706348E-01