# vtk DataFile Version 2.0
title
ASCII
DATASET STRUCTURED_GRID
DIMENSIONS   64   64    1
POINTS   4096  float
  0.000000E+00  0.000000E+00  0.000000E+00
  0.000000E+00  3.906250E-01  0.000000E+00
  0.000000E+00  7.812500E-01  0.000000E+00
  0.000000E+00  1.171875E+00  0.000000E+00
  0.000000E+00  1.562500E+00  0.000000E+00
  0.000000E+00  1.953125E+00  0.000000E+00
  0.000000E+00  2.343750E+00  0.000000E+00
  0.000000E+00  2.734375E+00  0.000000E+00
  0.000000E+00  3.125000E+00  0.000000E+00
  0.000000E+00  3.515625E+00  0.000000E+00
  0.000000E+00  3.906250E+00  0.000000E+00
  0.000000E+00  4.296875E+00  0.000000E+00
  0.000000E+00  4.687500E+00  0.000000E+00
  0.000000E+00  5.078125E+00  0.000000E+00
  0.000000E+00  5.468750E+00  0.000000E+00
  0.000000E+00  5.859375E+00  0.000000E+00
  0.000000E+00  6.250000E+00  0.000000E+00
  0.000000E+00  6.640625E+00  0.000000E+00
  0.000000E+00  7.031250E+00  0.000000E+00
  0.000000E+00  7.421875E+00  0.000000E+00
  0.000000E+00  7.812500E+00  0.000000E+00
  0.000000E+00  8.203125E+00  0.000000E+00
  0.000000E+00  8.593750E+00  0.000000E+00
  0.000000E+00  8.984375E+00  0.000000E+00
  0.000000E+00  9.375000E+00  0.000000E+00
  0.000000E+00  9.765625E+00  0.000000E+00
  0.000000E+00  1.015625E+01  0.000000E+00
  0.000000E+00  1.054688E+01  0.000000E+00
  0.000000E+00  1.093750E+01  0.000000E+00
  0.000000E+00  1.132812E+01  0.000000E+00
  0.000000E+00  1.171875E+01  0.000000E+00
  0.000000E+00  1.210938E+01  0.000000E+00
  0.000000E+00  1.250000E+01  0.000000E+00
  0.000000E+00  1.289062E+01  0.000000E+00
  0.000000E+00  1.328125E+01  0.000000E+00
  0.000000E+00  1.367188E+01  0.000000E+00
  0.000000E+00  1.406250E+01  0.000000E+00
  0.000000E+00  1.445312E+01  0.000000E+00
  0.000000E+00  1.484375E+01  0.000000E+00
  0.000000E+00  1.523438E+01  0.000000E+00
  0.000000E+00  1.562500E+01  0.000000E+00
  0.000000E+00  1.601562E+01  0.000000E+00
  0.000000E+00  1.640625E+01  0.000000E+00
  0.000000E+00  1.679688E+01  0.000000E+00
  0.000000E+00  1.718750E+01  0.000000E+00
  0.000000E+00  1.757812E+01  0.000000E+00
  0.000000E+00  1.796875E+01  0.000000E+00
  0.000000E+00  1.835938E+01  0.000000E+00
  0.000000E+00  1.875000E+01  0.000000E+00
  0.000000E+00  1.914062E+01  0.000000E+00
  0.000000E+00  1.953125E+01  0.000000E+00
  0.000000E+00  1.992188E+01  0.000000E+00
  0.000000E+00  2.031250E+01  0.000000E+00
  0.000000E+00  2.070312E+01  0.000000E+00
  0.000000E+00  2.109375E+01  0.000000E+00
  0.000000E+00  2.148438E+01  0.000000E+00
  0.000000E+00  2.187500E+01  0.000000E+00
  0.000000E+00  2.226562E+01  0.000000E+00
  0.000000E+00  2.265625E+01  0.000000E+00
  0.000000E+00  2.304688E+01  0.000000E+00
  0.000000E+00  2.343750E+01  0.000000E+00
  0.000000E+00  2.382812E+01  0.000000E+00
  0.000000E+00  2.421875E+01  0.000000E+00
  0.000000E+00  2.460938E+01  0.000000E+00
  3.906250E-01  0.000000E+00  0.000000E+00
  3.906250E-01  3.906250E-01  0.000000E+00
  3.906250E-01  7.812500E-01  0.000000E+00
  3.906250E-01  1.171875E+00  0.000000E+00
  3.906250E-01  1.562500E+00  0.000000E+00
  3.906250E-01  1.953125E+00  0.000000E+00
  3.906250E-01  2.343750E+00  0.000000E+00
  3.906250E-01  2.734375E+00  0.000000E+00
  3.906250E-01  3.125000E+00  0.000000E+00
  3.906250E-01  3.515625E+00  0.000000E+00
  3.906250E-01  3.906250E+00  0.000000E+00
  3.906250E-01  4.296875E+00  0.000000E+00
  3.906250E-01  4.687500E+00  0.000000E+00
  3.906250E-01  5.078125E+00  0.000000E+00
  3.906250E-01  5.468750E+00  0.000000E+00
  3.906250E-01  5.859375E+00  0.000000E+00
  3.906250E-01  6.250000E+00  0.000000E+00
  3.906250E-01  6.640625E+00  0.000000E+00
  3.906250E-01  7.031250E+00  0.000000E+00
  3.906250E-01  7.421875E+00  0.000000E+00
  3.906250E-01  7.812500E+00  0.000000E+00
  3.906250E-01  8.203125E+00  0.000000E+00
  3.906250E-01  8.593750E+00  0.000000E+00
  3.906250E-01  8.984375E+00  0.000000E+00
  3.906250E-01  9.375000E+00  0.000000E+00
  3.906250E-01  9.765625E+00  0.000000E+00
  3.906250E-01  1.015625E+01  0.000000E+00
  3.906250E-01  1.054688E+01  0.000000E+00
  3.906250E-01  1.093750E+01  0.000000E+00
  3.906250E-01  1.132812E+01  0.000000E+00
  3.906250E-01  1.171875E+01  0.000000E+00
  3.906250E-01  1.210938E+01  0.000000E+00
  3.906250E-01  1.250000E+01  0.000000E+00
  3.906250E-01  1.289062E+01  0.000000E+00
  3.906250E-01  1.328125E+01  0.000000E+00
  3.906250E-01  1.367188E+01  0.000000E+00
  3.906250E-01  1.406250E+01  0.000000E+00
  3.906250E-01  1.445312E+01  0.000000E+00
  3.906250E-01  1.484375E+01  0.000000E+00
  3.906250E-01  1.523438E+01  0.000000E+00
  3.906250E-01  1.562500E+01  0.000000E+00
  3.906250E-01  1.601562E+01  0.000000E+00
  3.906250E-01  1.640625E+01  0.000000E+00
  3.906250E-01  1.679688E+01  0.000000E+00
  3.906250E-01  1.718750E+01  0.000000E+00
  3.906250E-01  1.757812E+01  0.000000E+00
  3.906250E-01  1.796875E+01  0.000000E+00
  3.906250E-01  1.835938E+01  0.000000E+00
  3.906250E-01  1.875000E+01  0.000000E+00
  3.906250E-01  1.914062E+01  0.000000E+00
  3.906250E-01  1.953125E+01  0.000000E+00
  3.906250E-01  1.992188E+01  0.000000E+00
  3.906250E-01  2.031250E+01  0.000000E+00
  3.906250E-01  2.070312E+01  0.000000E+00
  3.906250E-01  2.109375E+01  0.000000E+00
  3.906250E-01  2.148438E+01  0.000000E+00
  3.906250E-01  2.187500E+01  0.000000E+00
  3.906250E-01  2.226562E+01  0.000000E+00
  3.906250E-01  2.265625E+01  0.000000E+00
  3.906250E-01  2.304688E+01  0.000000E+00
  3.906250E-01  2.343750E+01  0.000000E+00
  3.906250E-01  2.382812E+01  0.000000E+00
  3.906250E-01  2.421875E+01  0.000000E+00
  3.906250E-01  2.460938E+01  0.000000E+00
  7.812500E-01  0.000000E+00  0.000000E+00
  7.812500E-01  3.906250E-01  0.000000E+00
  7.812500E-01  7.812500E-01  0.000000E+00
  7.812500E-01  1.171875E+00  0.000000E+00
  7.812500E-01  1.562500E+00  0.000000E+00
  7.812500E-01  1.953125E+00  0.000000E+00
  7.812500E-01  2.343750E+00  0.000000E+00
  7.812500E-01  2.734375E+00  0.000000E+00
  7.812500E-01  3.125000E+00  0.000000E+00
  7.812500E-01  3.515625E+00  0.000000E+00
  7.812500E-01  3.906250E+00  0.000000E+00
  7.812500E-01  4.296875E+00  0.000000E+00
  7.812500E-01  4.687500E+00  0.000000E+00
  7.812500E-01  5.078125E+00  0.000000E+00
  7.812500E-01  5.468750E+00  0.000000E+00
  7.812500E-01  5.859375E+00  0.000000E+00
  7.812500E-01  6.250000E+00  0.000000E+00
  7.812500E-01  6.640625E+00  0.000000E+00
  7.812500E-01  7.031250E+00  0.000000E+00
  7.812500E-01  7.421875E+00  0.000000E+00
  7.812500E-01  7.812500E+00  0.000000E+00
  7.812500E-01  8.203125E+00  0.000000E+00
  7.812500E-01  8.593750E+00  0.000000E+00
  7.812500E-01  8.984375E+00  0.000000E+00
  7.812500E-01  9.375000E+00  0.000000E+00
  7.812500E-01  9.765625E+00  0.000000E+00
  7.812500E-01  1.015625E+01  0.000000E+00
  7.812500E-01  1.054688E+01  0.000000E+00
  7.812500E-01  1.093750E+01  0.000000E+00
  7.812500E-01  1.132812E+01  0.000000E+00
  7.812500E-01  1.171875E+01  0.000000E+00
  7.812500E-01  1.210938E+01  0.000000E+00
  7.812500E-01  1.250000E+01  0.000000E+00
  7.812500E-01  1.289062E+01  0.000000E+00
  7.812500E-01  1.328125E+01  0.000000E+00
  7.812500E-01  1.367188E+01  0.000000E+00
  7.812500E-01  1.406250E+01  0.000000E+00
  7.812500E-01  1.445312E+01  0.000000E+00
  7.812500E-01  1.484375E+01  0.000000E+00
  7.812500E-01  1.523438E+01  0.000000E+00
  7.812500E-01  1.562500E+01  0.000000E+00
  7.812500E-01  1.601562E+01  0.000000E+00
  7.812500E-01  1.640625E+01  0.000000E+00
  7.812500E-01  1.679688E+01  0.000000E+00
  7.812500E-01  1.718750E+01  0.000000E+00
  7.812500E-01  1.757812E+01  0.000000E+00
  7.812500E-01  1.796875E+01  0.000000E+00
  7.812500E-01  1.835938E+01  0.000000E+00
  7.812500E-01  1.875000E+01  0.000000E+00
  7.812500E-01  1.914062E+01  0.000000E+00
  7.812500E-01  1.953125E+01  0.000000E+00
  7.812500E-01  1.992188E+01  0.000000E+00
  7.812500E-01  2.031250E+01  0.000000E+00
  7.812500E-01  2.070312E+01  0.000000E+00
  7.812500E-01  2.109375E+01  0.000000E+00
  7.812500E-01  2.148438E+01  0.000000E+00
  7.812500E-01  2.187500E+01  0.000000E+00
  7.812500E-01  2.226562E+01  0.000000E+00
  7.812500E-01  2.265625E+01  0.000000E+00
  7.812500E-01  2.304688E+01  0.000000E+00
  7.812500E-01  2.343750E+01  0.000000E+00
  7.812500E-01  2.382812E+01  0.000000E+00
  7.812500E-01  2.421875E+01  0.000000E+00
  7.812500E-01  2.460938E+01  0.000000E+00
  1.171875E+00  0.000000E+00  0.000000E+00
  1.171875E+00  3.906250E-01  0.000000E+00
  1.171875E+00  7.812500E-01  0.000000E+00
  1.171875E+00  1.171875E+00  0.000000E+00
  1.171875E+00  1.562500E+00  0.000000E+00
  1.171875E+00  1.953125E+00  0.000000E+00
  1.171875E+00  2.343750E+00  0.000000E+00
  1.171875E+00  2.734375E+00  0.000000E+00
  1.171875E+00  3.125000E+00  0.000000E+00
  1.171875E+00  3.515625E+00  0.000000E+00
  1.171875E+00  3.906250E+00  0.000000E+00
  1.171875E+00  4.296875E+00  0.000000E+00
  1.171875E+00  4.687500E+00  0.000000E+00
  1.171875E+00  5.078125E+00  0.000000E+00
  1.171875E+00  5.468750E+00  0.000000E+00
  1.171875E+00  5.859375E+00  0.000000E+00
  1.171875E+00  6.250000E+00  0.000000E+00
  1.171875E+00  6.640625E+00  0.000000E+00
  1.171875E+00  7.031250E+00  0.000000E+00
  1.171875E+00  7.421875E+00  0.000000E+00
  1.171875E+00  7.812500E+00  0.000000E+00
  1.171875E+00  8.203125E+00  0.000000E+00
  1.171875E+00  8.593750E+00  0.000000E+00
  1.171875E+00  8.984375E+00  0.000000E+00
  1.171875E+00  9.375000E+00  0.000000E+00
  1.171875E+00  9.765625E+00  0.000000E+00
  1.171875E+00  1.015625E+01  0.000000E+00
  1.171875E+00  1.054688E+01  0.000000E+00
  1.171875E+00  1.093750E+01  0.000000E+00
  1.171875E+00  1.132812E+01  0.000000E+00
  1.171875E+00  1.171875E+01  0.000000E+00
  1.171875E+00  1.210938E+01  0.000000E+00
  1.171875E+00  1.250000E+01  0.000000E+00
  1.171875E+00  1.289062E+01  0.000000E+00
  1.171875E+00  1.328125E+01  0.000000E+00
  1.171875E+00  1.367188E+01  0.000000E+00
  1.171875E+00  1.406250E+01  0.000000E+00
  1.171875E+00  1.445312E+01  0.000000E+00
[...]
POINT_DATA   4096
SCALARS CON  float  1
LOOKUP_TABLE default
  3.720580E-01
  3.718878E-01
  3.765134E-01
  3.740555E-01
  3.751246E-01
  3.703479E-01
  3.719671E-01
  3.699354E-01
  3.739625E-01
  3.720124E-01
  3.739840E-01
  3.696550E-01
  3.707078E-01
  3.674320E-01
  3.706968E-01
  3.696649E-01
  3.742287E-01
  3.728801E-01
  3.755917E-01
  3.716258E-01
  3.722389E-01
  3.675534E-01
  3.685397E-01
  3.645795E-01
  3.661454E-01
  3.630398E-01
  3.663303E-01
  3.656952E-01
  3.709581E-01
  3.702043E-01
  3.730798E-01
  3.692519E-01
  3.707199E-01
  3.680701E-01
  3.718498E-01
  3.703109E-01
  3.728897E-01
  3.688087E-01
  3.694836E-01
  3.652506E-01
  3.669826E-01
  3.638731E-01
  3.660774E-01
  3.630087E-01
  3.655263E-01
  3.637548E-01
  3.687145E-01
  3.697283E-01
  3.761359E-01
  3.753380E-01
  3.767254E-01
  3.702209E-01
  3.689030E-01
  3.648187E-01
  3.696739E-01
  3.720207E-01
  3.798703E-01
  3.798330E-01
  3.816529E-01
  3.755973E-01
  3.743501E-01
  3.687477E-01
  3.700210E-01
  3.676724E-01
  3.732849E-01
  3.742120E-01
  3.789694E-01
  3.776609E-01
  3.774759E-01
  3.715921E-01
  3.703227E-01
  3.673029E-01
  3.703079E-01
  3.701096E-01
  3.733702E-01
  3.716214E-01
  3.729929E-01
  3.699574E-01
  3.710208E-01
  3.688989E-01
  3.718868E-01
  3.716228E-01
  3.749002E-01
  3.726692E-01
  3.728795E-01
  3.685736E-01
  3.688594E-01
  3.662585E-01
  3.682998E-01
  3.665459E-01
  3.687887E-01
  3.674685E-01
  3.707146E-01
  3.702668E-01
  3.733152E-01
  3.713534E-01
  3.724399E-01
  3.691695E-01
  3.699971E-01
  3.672265E-01
  3.688222E-01
  3.668149E-01
  3.689146E-01
  3.667704E-01
  3.678869E-01
  3.643986E-01
  3.647424E-01
  3.617346E-01
  3.636759E-01
  3.629520E-01
  3.675389E-01
  3.693360E-01
  3.751501E-01
  3.751686E-01
  3.761578E-01
  3.708693E-01
  3.698871E-01
  3.678647E-01
  3.733977E-01
  3.768437E-01
  3.830732E-01
  3.816985E-01
  3.809070E-01
  3.747016E-01
  3.732504E-01
  3.694009E-01
  3.708606E-01
  3.694701E-01
  3.675716E-01
  3.725641E-01
  3.779656E-01
  3.789102E-01
  3.772503E-01
  3.723222E-01
  3.693133E-01
  3.674770E-01
  3.691126E-01
  3.705114E-01
  3.727585E-01
  3.727315E-01
  3.729064E-01
  3.713209E-01
  3.710494E-01
  3.702258E-01
  3.714711E-01
  3.719882E-01
  3.734468E-01
  3.727522E-01
  3.722759E-01
  3.700633E-01
  3.691236E-01
  3.673189E-01
  3.670670E-01
  3.659160E-01
  3.663604E-01
  3.660608E-01
  3.672616E-01
  3.671135E-01
  3.677019E-01
  3.667478E-01
  3.672736E-01
  3.673448E-01
  3.692038E-01
  3.696263E-01
  3.702969E-01
  3.687243E-01
  3.678544E-01
  3.657429E-01
  3.648807E-01
  3.627621E-01
  3.619583E-01
  3.605716E-01
  3.615670E-01
  3.628702E-01
  3.667732E-01
  3.702309E-01
  3.744214E-01
  3.754180E-01
  3.749083E-01
  3.712536E-01
  3.690485E-01
  3.680308E-01
  3.714411E-01
  3.757432E-01
  3.807894E-01
  3.815724E-01
  3.797168E-01
  3.739264E-01
  3.687977E-01
  3.637734E-01
  3.624491E-01
  3.629690E-01
  3.682631E-01
  3.740292E-01
  3.773126E-01
  3.795074E-01
  3.755978E-01
  3.711462E-01
  3.652324E-01
  3.640146E-01
  3.640277E-01
  3.680195E-01
  3.704363E-01
  3.737892E-01
  3.734200E-01
  3.733442E-01
  3.704894E-01
  3.701022E-01
  3.692838E-01
  3.719036E-01
  3.728936E-01
  3.747767E-01
  3.730496E-01
  3.722822E-01
  3.696613E-01
  3.697648E-01
  3.684987E-01
  3.691551E-01
  3.674746E-01
  3.676219E-01
  3.663285E-01
  3.678655E-01
  3.680544E-01
  3.700004E-01
  3.690909E-01
  3.691538E-01
  3.668468E-01
  3.668951E-01
  3.659557E-01
  3.678580E-01
  3.679793E-01
  3.692345E-01
  3.671700E-01
  3.661368E-01
  3.634274E-01
  3.639716E-01
  3.640882E-01
  3.670863E-01
  3.683817E-01
  3.714746E-01
  3.720627E-01
  3.734580E-01
  3.713211E-01
  3.701826E-01
  3.677707E-01
  3.695676E-01
  3.718907E-01
  3.770831E-01
  3.787556E-01
  3.792398E-01
  3.748911E-01
  3.714363E-01
  3.666806E-01
  3.653504E-01
  3.637450E-01
  3.659348E-01
  3.644947E-01
  3.720860E-01
  3.740392E-01
  3.774188E-01
  3.723005E-01
  3.699055E-01
  3.635602E-01
  3.642997E-01
  3.630815E-01
  3.681191E-01
  3.687396E-01
  3.730627E-01
  3.712054E-01
  3.728053E-01
  3.693664E-01
  3.711900E-01
  3.694352E-01
  3.731782E-01
  3.722951E-01
  3.753402E-01
  3.725284E-01
  3.734142E-01
  3.690866E-01
  3.693899E-01
  3.653690E-01
  3.664984E-01
  3.635421E-01
  3.657189E-01
  3.637106E-01
  3.666610E-01
  3.651106E-01
  3.681135E-01
  3.662738E-01
  3.690117E-01
  3.671783E-01
  3.700649E-01
  3.681601E-01
  3.705580E-01
  3.678024E-01
  3.691439E-01
  3.653638E-01
  3.662410E-01
  3.632729E-01
  3.663018E-01
  3.659663E-01
  3.706994E-01
  3.701920E-01
  3.733067E-01
  3.707504E-01
  3.721085E-01
  3.682047E-01
  3.687376E-01
  3.651607E-01
  3.676019E-01
  3.671290E-01
  3.724149E-01
  3.727267E-01
  3.760108E-01
  3.722428E-01
  3.712613E-01
  3.648481E-01
  3.636529E-01
  3.596793E-01
  3.630145E-01
  3.679541E-01
  3.732782E-01
  3.727314E-01
  3.757630E-01
  3.702358E-01
  3.685167E-01
  3.615973E-01
  3.624325E-01
  3.604955E-01
  3.661355E-01
  3.668459E-01
  3.723356E-01
  3.704638E-01
  3.725261E-01
  3.682764E-01
  3.703589E-01
  3.685152E-01
  3.737251E-01
  3.734506E-01
  3.774729E-01
  3.737933E-01
  3.742450E-01
  3.686796E-01
  3.692968E-01
  3.652033E-01
  3.673129E-01
  3.641613E-01
  3.669074E-01
  3.648331E-01
  3.693908E-01
  3.690282E-01
  3.737775E-01
  3.712127E-01
  3.724167E-01
  3.672337E-01
  3.684733E-01
  3.658956E-01
  3.703378E-01
  3.692616E-01
  3.725237E-01
  3.685675E-01
  3.696742E-01
  3.662840E-01
  3.704278E-01
  3.702547E-01
  3.752368E-01
  3.727266E-01
  3.740511E-01
  3.689951E-01
  3.697702E-01
  3.654495E-01
  3.672205E-01
  3.641892E-01
  3.678553E-01
  3.669377E-01
  3.717143E-01
  3.699032E-01
  3.723408E-01
  3.683261E-01
  3.699835E-01
  3.665326E-01
  3.690120E-01
  3.660892E-01
  3.692595E-01
  3.656503E-01
  3.703889E-01
  3.699683E-01
  3.729821E-01
  3.690637E-01
  3.689684E-01
  3.641902E-01
  3.656361E-01
  3.637670E-01
  3.679278E-01
  3.673932E-01
  3.711292E-01
  3.688085E-01
  3.707113E-01
  3.678575E-01
  3.709893E-01
  3.703795E-01
  3.752833E-01
  3.746865E-01
  3.776784E-01
  3.739248E-01
  3.737347E-01
  3.678319E-01
  3.670057E-01
  3.621946E-01
  3.636820E-01
  3.616344E-01
  3.654359E-01
  3.648185E-01
  3.692818E-01
  3.686571E-01
  3.724519E-01
  3.704630E-01
  3.728172E-01
  3.701429E-01
  3.728110E-01
  3.708056E-01
  3.735014E-01
  3.704327E-01
  3.714448E-01
  3.671380E-01
  3.683834E-01
  3.662016E-01
  3.706289E-01
  3.709284E-01
  3.754736E-01
  3.731271E-01
  3.739501E-01
  3.690627E-01
  3.694764E-01
  3.656582E-01
  3.672616E-01
  3.642285E-01
  3.664841E-01
  3.643867E-01
  3.677534E-01
  3.664235E-01
  3.698822E-01
  3.679375E-01
  3.703050E-01
  3.670376E-01
  3.682354E-01
  3.646241E-01
  3.668819E-01
  3.684305E-01
  3.700328E-01
  3.693706E-01
  3.717566E-01
  3.699329E-01
  3.700296E-01
  3.665704E-01
  3.668897E-01
  3.654435E-01
  3.683605E-01
  3.686498E-01
  3.715358E-01
  3.700826E-01
  3.707401E-01
  3.682579E-01
  3.701157E-01
  3.706279E-01
  3.753941E-01
  3.765068E-01
  3.787262E-01
  3.752295E-01
  3.731950E-01
  3.678195E-01
  3.666468E-01
  3.639793E-01
  3.657878E-01
  3.652644E-01
  3.681562E-01
  3.682574E-01
  3.720280E-01
  3.729978E-01
  3.765024E-01
  3.751803E-01
  3.752202E-01
  3.714383E-01
  3.716546E-01
  3.703073E-01
  3.730503E-01
  3.722381E-01
  3.731958E-01
  3.698774E-01
  3.698378E-01
  3.681551E-01
  3.713466E-01
  3.720693E-01
  3.749156E-01
  3.726896E-01
  3.722681E-01
  3.686796E-01
  3.690252E-01
  3.669709E-01
  3.683322E-01
  3.667939E-01
  3.687897E-01
  3.679919E-01
  3.700458E-01
  3.681737E-01
  3.688571E-01
  3.667701E-01
  3.688908E-01
  3.687500E-01
  3.715502E-01
  3.701291E-01
  3.708460E-01
  3.642765E-01
  3.659919E-01
  3.670633E-01
  3.698826E-01
  3.706110E-01
  3.720659E-01
  3.712475E-01
  3.717453E-01
  3.708692E-01
  3.719002E-01
  3.714107E-01
  3.720295E-01
  3.703894E-01
  3.700853E-01
  3.689015E-01
  3.706767E-01
  3.721831E-01
  3.756147E-01
  3.765379E-01
  3.772150E-01
  3.743655E-01
  3.718162E-01
  3.674522E-01
  3.654716E-01
  3.635347E-01
  3.649171E-01
  3.659579E-01
  3.687952E-01
  3.695513E-01
  3.712192E-01
  3.709525E-01
  3.721749E-01
  3.718505E-01
  3.732486E-01
  3.733426E-01
  3.751192E-01
  3.748103E-01
  3.748858E-01
  3.720534E-01
  3.701326E-01
  3.670676E-01
  3.668570E-01
  3.665843E-01
  3.688625E-01
  3.696517E-01
  3.712827E-01
  3.704237E-01
  3.707155E-01
  3.696596E-01
  3.705639E-01
  3.699137E-01
  3.704262E-01
  3.690163E-01
  3.692745E-01
  3.684301E-01
  3.695265E-01
  3.690598E-01
  3.699191E-01
  3.689936E-01
  3.694828E-01
  3.681375E-01
  3.678989E-01
  3.657375E-01
  3.653363E-01
  3.658117E-01
  3.658475E-01
  3.668283E-01
  3.696227E-01
  3.714651E-01
  3.729143E-01
  3.723532E-01
  3.720235E-01
  3.712742E-01
  3.720300E-01
  3.724131E-01
  3.731370E-01
  3.720502E-01
  3.708620E-01
  3.690516E-01
  3.693422E-01
  3.707255E-01
  3.740108E-01
  3.760109E-01
  3.767141E-01
  3.742083E-01
  3.710887E-01
  3.675564E-01
  3.665117E-01
  3.668237E-01
  3.693279E-01
  3.712433E-01
  3.730279E-01
  3.729646E-01
  3.732192E-01
  3.729253E-01
  3.736119E-01
  3.732293E-01
  3.730283E-01
  3.718644E-01
  3.719007E-01
  3.717303E-01
  3.722909E-01
  3.713171E-01
  3.702206E-01
  3.681448E-01
  3.675469E-01
  3.673830E-01
  3.687955E-01
  3.693597E-01
  3.699442E-01
  3.692155E-01
  3.694902E-01
  3.697597E-01
  3.711934E-01
  3.714279E-01
  3.716448E-01
  3.708997E-01
  3.715770E-01
  3.722485E-01
  3.735379E-01
  3.728969E-01
  3.718180E-01
  3.698036E-01
  3.694592E-01
  3.693409E-01
  3.700310E-01
  3.690154E-01
  3.677771E-01
  3.620136E-01
  3.635022E-01
  3.651803E-01
  3.686697E-01
  3.708859E-01
  3.733576E-01
  3.735119E-01
  3.739109E-01
  3.729064E-01
  3.732322E-01
  3.725369E-01
  3.726060E-01
  3.708556E-01
  3.699104E-01
  3.683886E-01
  3.692938E-01
  3.703880E-01
  3.731475E-01
  3.741473E-01
  3.747624E-01
  3.725321E-01
  3.703615E-01
  3.670971E-01
  3.661450E-01
  3.659638E-01
  3.686522E-01
  3.708664E-01
  3.733602E-01
  3.728906E-01
  3.719396E-01
  3.693317E-01
  3.685077E-01
  3.678462E-01
  3.696000E-01
  3.709660E-01
  3.732432E-01
  3.730981E-01
  3.722669E-01
  3.689510E-01
  3.666947E-01
  3.644854E-01
  3.650003E-01
  3.654792E-01
  3.672311E-01
  3.673763E-01
  3.682453E-01
  3.681549E-01
  3.698258E-01
  3.708286E-01
  3.726437E-01
  3.722220E-01
  3.717948E-01
  3.699200E-01
  3.699297E-01
  3.700440E-01
  3.721037E-01
  3.729093E-01
  3.739852E-01
  3.728474E-01
  3.719588E-01
  3.693045E-01
  3.674061E-01
  3.644027E-01
  3.631525E-01
  3.650558E-01
  3.656032E-01
  3.660007E-01
  3.692127E-01
  3.705138E-01
  3.724451E-01
  3.712136E-01
  3.710707E-01
  3.694347E-01
  3.704408E-01
  3.702730E-01
  3.716593E-01
  3.702881E-01
  3.697493E-01
  3.673499E-01
  3.678143E-01
  3.682325E-01
  3.717164E-01
  3.733083E-01
  3.750841E-01
  3.728536E-01
  3.709606E-01
  3.674295E-01
  3.672869E-01
  3.675192E-01
  3.710373E-01
  3.728641E-01
  3.752037E-01
  3.740049E-01
  3.734890E-01
  3.710894E-01
  3.709408E-01
  3.693788E-01
  3.696892E-01
  3.683136E-01
  3.690083E-01
  3.681964E-01
  3.690807E-01
  3.677390E-01
  3.677970E-01
  3.662051E-01
  3.670310E-01
  3.668120E-01
  3.686484E-01
  3.684128E-01
  3.695120E-01
  3.687934E-01
  3.703037E-01
  3.703914E-01
  3.718840E-01
  3.705278E-01
  3.701289E-01
  3.682631E-01
  3.695877E-01
  3.705960E-01
  3.737469E-01
  3.741272E-01
  3.748381E-01
  3.728710E-01
  3.726948E-01
  3.710192E-01
  3.710140E-01
  3.686292E-01
  3.675549E-01
  3.630934E-01
  3.651015E-01
  3.656565E-01
  3.688037E-01
  3.695681E-01
  3.718742E-01
  3.709132E-01
  3.713778E-01
  3.693815E-01
  3.699377E-01
  3.686038E-01
  3.694655E-01
  3.677358E-01
  3.680906E-01
  3.666652E-01
  3.684204E-01
  3.688875E-01
  3.720331E-01
  3.726277E-01
  3.744613E-01
  3.725912E-01
  3.716239E-01
  3.677776E-01
  3.666824E-01
  3.649323E-01
  3.673022E-01
  3.686062E-01
  3.718562E-01
  3.712989E-01
  3.712133E-01
  3.679857E-01
  3.673793E-01
  3.657941E-01
  3.677784E-01
  3.682516E-01
  3.706953E-01
  3.697684E-01
  3.697314E-01
  3.666912E-01
  3.661454E-01
  3.644148E-01
  3.660247E-01
  3.659800E-01
  3.680884E-01
  3.676201E-01
  3.692433E-01
  3.687938E-01
  3.707471E-01
  3.701919E-01
  3.710727E-01
  3.687489E-01
  3.682016E-01
  3.658577E-01
  3.669280E-01
  3.671350E-01
  3.704888E-01
  3.716914E-01
  3.744064E-01
  3.735543E-01
  3.734854E-01
  3.699980E-01
  3.682906E-01
  3.647248E-01
  3.644002E-01
  3.679176E-01
  3.684156E-01
  3.678180E-01
  3.695513E-01
  3.695857E-01
  3.707108E-01
  3.691546E-01
  3.687865E-01
  3.668690E-01
  3.674035E-01
  3.668557E-01
  3.681740E-01
  3.673887E-01
  3.679371E-01
  3.668173E-01
  3.681422E-01
  3.687969E-01
  3.720119E-01
  3.734674E-01
  3.756090E-01
  3.742164E-01
  3.729080E-01
  3.691063E-01
  3.675705E-01
  3.657538E-01
  3.672484E-01
  3.679395E-01
  3.703118E-01
  3.702031E-01
  3.710904E-01
  3.699113E-01
  3.704723E-01
  3.692201E-01
  3.694158E-01
  3.676207E-01
  3.676955E-01
  3.665649E-01
  3.677512E-01
  3.674501E-01
  3.687377E-01
  3.680129E-01
  3.689477E-01
  3.683388E-01
  3.697016E-01
  3.693148E-01
  3.703770E-01
  3.693249E-01
  3.697476E-01
  3.682259E-01
  3.682027E-01
  3.662928E-01
  3.664250E-01
  3.657597E-01
  3.680127E-01
  3.692316E-01
  3.718992E-01
  3.717292E-01
  3.721647E-01
  3.703156E-01
  3.703805E-01
  3.691709E-01
  3.699965E-01
  3.689929E-01
  3.694119E-01
  3.677142E-01
  3.688693E-01
  3.686474E-01
  3.691308E-01
  3.691306E-01
  3.701209E-01
  3.700296E-01
  3.701337E-01
  3.689421E-01
  3.683834E-01
  3.671076E-01
  3.668084E-01
  3.660705E-01
  3.667909E-01
  3.675716E-01
  3.697752E-01
  3.712598E-01
  3.731693E-01
  3.738025E-01
  3.747650E-01
  3.741652E-01
  3.731142E-01
  3.698753E-01
  3.667578E-01
  3.634949E-01
  3.627830E-01
  3.631937E-01
  3.653899E-01
  3.664646E-01
  3.672398E-01
  3.664041E-01
  3.664903E-01
  3.666551E-01
  3.684569E-01
  3.695849E-01
  3.707826E-01
  3.700674E-01
  3.693277E-01
  3.676734E-01
  3.673163E-01
  3.668680E-01
  3.677160E-01
  3.679314E-01
  3.688655E-01
  3.688279E-01
  3.693424E-01
  3.687056E-01
  3.684386E-01
  3.670546E-01
  3.664822E-01
  3.655686E-01
  3.661782E-01
  3.666391E-01
  3.681249E-01
  3.685990E-01
  3.694478E-01
  3.691210E-01
  3.692555E-01
  3.681512E-01
  3.673710E-01
  3.656734E-01
  3.653265E-01
  3.652350E-01
  3.668084E-01
  3.741101E-01
  3.730772E-01
  3.715190E-01
  3.698387E-01
  3.692273E-01
  3.687935E-01
  3.687488E-01
  3.681715E-01
  3.678260E-01
  3.671991E-01
  3.670288E-01
  3.666341E-01
  3.668004E-01
  3.670679E-01
  3.682610E-01
  3.695999E-01
  3.714599E-01
  3.728363E-01
  3.741972E-01
  3.746482E-01
  3.745627E-01
  3.729669E-01
  3.706282E-01
  3.674985E-01
  3.652012E-01
  3.637691E-01
  3.639777E-01
  3.646825E-01
  3.659490E-01
  3.668110E-01
  3.680514E-01
  3.691045E-01
  3.703842E-01
  3.706524E-01
  3.702787E-01
  3.689240E-01
  3.680875E-01
  3.677081E-01
  3.684221E-01
  3.689858E-01
  3.695884E-01
  3.695569E-01
  3.699325E-01
  3.702015E-01
  3.706900E-01
  3.700966E-01
  3.688429E-01
  3.666661E-01
  3.650888E-01
  3.641765E-01
  3.649323E-01
  3.665529E-01
  3.691741E-01
  3.712175E-01
  3.723877E-01
  3.714269E-01
  3.692522E-01
  3.661476E-01
  3.640109E-01
  3.631053E-01
  3.644577E-01
  3.670523E-01
  3.705774E-01
  3.730329E-01
  3.742480E-01
  3.735946E-01
  3.721388E-01
  3.692996E-01
  3.684765E-01
  3.679157E-01
  3.691019E-01
  3.691465E-01
  3.696084E-01
  3.683293E-01
  3.676049E-01
  3.658440E-01
  3.657827E-01
  3.659337E-01
  3.683499E-01
  3.701730E-01
  3.723718E-01
  3.723312E-01
  3.725627E-01
  3.717901E-01
  3.723132E-01
  3.713792E-01
  3.702248E-01
  3.667591E-01
  3.641304E-01
  3.616605E-01
  3.620358E-01
  3.626716E-01
  3.644539E-01
  3.645708E-01
  3.653603E-01
  3.656817E-01
  3.681458E-01
  3.702020E-01
  3.727087E-01
  3.725647E-01
  3.717891E-01
  3.691398E-01
  3.677669E-01
  3.662745E-01
  3.668204E-01
  3.670647E-01
  3.686850E-01
  3.691865E-01
  3.701683E-01
  3.691484E-01
  3.681618E-01
  3.656425E-01
  3.645602E-01
  3.637152E-01
  3.654925E-01
  3.673853E-01
  3.703442E-01
  3.710911E-01
  3.711365E-01
  3.687806E-01
  3.670476E-01
  3.646302E-01
  3.638402E-01
  3.626837E-01
  3.635321E-01
  3.648103E-01
  3.685237E-01
  3.715259E-01
  3.788741E-01
  3.760669E-01
  3.737088E-01
  3.695763E-01
  3.683781E-01
  3.664390E-01
  3.670625E-01
  3.660924E-01
  3.670180E-01
  3.659868E-01
  3.666852E-01
  3.654903E-01
  3.664154E-01
  3.660267E-01
  3.680469E-01
  3.683537E-01
  3.701661E-01
  3.695144E-01
  3.704025E-01
  3.695030E-01
  3.706725E-01
  3.698034E-01
  3.701608E-01
  3.679182E-01
  3.673354E-01
  3.653839E-01
  3.661222E-01
  3.656121E-01
  3.671622E-01
  3.669515E-01
  3.690147E-01
  3.698050E-01
  3.726007E-01
  3.726589E-01
  3.730315E-01
  3.702274E-01
  3.691169E-01
  3.669529E-01
  3.676764E-01
  3.670902E-01
  3.684836E-01
  3.681562E-01
  3.700764E-01
  3.703091E-01
  3.717805E-01
  3.698756E-01
  3.683385E-01
  3.644662E-01
  3.634138E-01
  3.623959E-01
  3.651300E-01
  3.671569E-01
  3.710640E-01
  3.719892E-01
  3.730101E-01
  3.703947E-01
  3.686354E-01
  3.650732E-01
  3.644533E-01
  3.637340E-01
  3.668537E-01
  3.697170E-01
  3.749526E-01
  3.771878E-01
  3.751391E-01
  3.730623E-01
  3.723626E-01
  3.683500E-01
  3.679900E-01
  3.658650E-01
  3.673912E-01
  3.661574E-01
  3.675233E-01
  3.656034E-01
  3.663353E-01
  3.642855E-01
  3.656911E-01
  3.650867E-01
  3.680250E-01
  3.678759E-01
  3.695436E-01
  3.670924E-01
  3.672347E-01
  3.653836E-01
  3.677394E-01
  3.677394E-01
  3.698911E-01
  3.677561E-01
  3.677588E-01
  3.653193E-01
  3.669256E-01
  3.663997E-01
  3.685747E-01
  3.671646E-01
  3.684900E-01
  3.677020E-01
  3.709453E-01
  3.716393E-01
  3.743223E-01
  3.723154E-01
  3.716870E-01
  3.675828E-01
  3.668557E-01
  3.643543E-01
  3.660084E-01
  3.658244E-01
  3.690702E-01
  3.691696E-01
  3.711195E-01
  3.686444E-01
  3.678773E-01
  3.639804E-01
  3.638696E-01
  3.625037E-01
  3.655848E-01
  3.665584E-01
  3.700462E-01
  3.693869E-01
  3.704114E-01
  3.681031E-01
  3.691834E-01
  3.680668E-01
  3.700440E-01
  3.687452E-01
  3.701247E-01
  3.691187E-01
  3.720337E-01
  3.725185E-01
  3.755439E-01
  3.720901E-01
  3.723112E-01
  3.683339E-01
  3.688226E-01
  3.654278E-01
  3.663928E-01
  3.634304E-01
  3.649843E-01
  3.628688E-01
  3.653741E-01
  3.641019E-01
  3.671801E-01
  3.660496E-01
  3.686989E-01
  3.664824E-01
  3.677101E-01
  3.644458E-01
  3.657265E-01
  3.638542E-01
  3.671969E-01
  3.669077E-01
  3.705171E-01
  3.692092E-01
  3.715254E-01
  3.695843E-01
  3.719939E-01
  3.702031E-01
  3.723699E-01
  3.703176E-01
  3.729193E-01
  3.719099E-01
  3.749755E-01
  3.726469E-01
  3.729055E-01
  3.680804E-01
  3.678963E-01
  3.648731E-01
  3.672133E-01
  3.659442E-01
  3.689524E-01
  3.679932E-01
  3.715267E-01
  3.707532E-01
  3.731116E-01
  3.695403E-01
  3.688045E-01
  3.638162E-01
  3.641860E-01
  3.621657E-01
  3.656932E-01
  3.657069E-01
  3.697955E-01
  3.692226E-01
  3.723071E-01
  3.708668E-01
  3.735119E-01
  3.719418E-01
  3.744695E-01
  3.726026E-01
  3.748869E-01
  3.731357E-01
  3.757454E-01
  3.739101E-01
  3.694502E-01
  3.681264E-01
  3.705159E-01
  3.679498E-01
  3.694027E-01
  3.666392E-01
  3.682462E-01
  3.655199E-01
  3.669598E-01
  3.641938E-01
  3.660181E-01
  3.641349E-01
  3.671317E-01
  3.662691E-01
  3.695439E-01
  3.676485E-01
  3.687457E-01
  3.646868E-01
  3.652010E-01
  3.629170E-01
  3.665570E-01
  3.666758E-01
  3.704800E-01
  3.687508E-01
  3.705859E-01
  3.683954E-01
  3.711934E-01
  3.698719E-01
  3.722091E-01
  3.694187E-01
  3.707895E-01
  3.685565E-01
  3.714180E-01
  3.700739E-01
  3.722940E-01
  3.691769E-01
  3.696790E-01
  3.658703E-01
  3.668751E-01
  3.645464E-01
  3.675783E-01
  3.672613E-01
  3.715316E-01
  3.708714E-01
  3.731271E-01
  3.695810E-01
  3.695309E-01
  3.653951E-01
  3.664732E-01