# vtk DataFile Version 2.0
title
ASCII
DATASET STRUCTURED_GRID
DIMENSIONS   64   64    1
POINTS   4096  float
  0.000000E+00  0.000000E+00  0.000000E+00
  0.000000E+00  3.906250E-01  0.000000E+00
  0.000000E+00  7.812500E-01  0.000000E+00
  0.000000E+00  1.171875E+00  0.000000E+00
  0.000000E+00  1.562500E+00  0.000000E+00
  0.000000E+00  1.953125E+00  0.000000E+00
  0.000000E+00  2.343750E+00  0.000000E+00
  0.000000E+00  2.734375E+00  0.000000E+00
  0.000000E+00  3.125000E+00  0.000000E+00
  0.000000E+00  3.515625E+00  0.000000E+00
  0.000000E+00  3.906250E+00  0.000000E+00
  0.000000E+00  4.296875E+00  0.000000E+00
  0.000000E+00  4.687500E+00  0.000000E+00
  0.000000E+00  5.078125E+00  0.000000E+00
  0.000000E+00  5.468750E+00  0.000000E+00
  0.000000E+00  5.859375E+00  0.000000E+00
  0.000000E+00  6.250000E+00  0.000000E+00
  0.000000E+00  6.640625E+00  0.000000E+00
  0.000000E+00  7.031250E+00  0.000000E+00
  0.000000E+00  7.421875E+00  0.000000E+00
  0.000000E+00  7.812500E+00  0.000000E+00
  0.000000E+00  8.203125E+00  0.000000E+00
  0.000000E+00  8.593750E+00  0.000000E+00
  0.000000E+00  8.984375E+00  0.000000E+00
  0.000000E+00  9.375000E+00  0.000000E+00
  0.000000E+00  9.765625E+00  0.000000E+00
  0.000000E+00  1.015625E+01  0.000000E+00
  0.000000E+00  1.054688E+01  0.000000E+00
  0.000000E+00  1.093750E+01  0.000000E+00
  0.000000E+00  1.132812E+01  0.000000E+00
  0.000000E+00  1.171875E+01  0.000000E+00
  0.000000E+00  1.210938E+01  0.000000E+00
  0.000000E+00  1.250000E+01  0.000000E+00
  0.000000E+00  1.289062E+01  0.000000E+00
  0.000000E+00  1.328125E+01  0.000000E+00
  0.000000E+00  1.367188E+01  0.000000E+00
  0.000000E+00  1.406250E+01  0.000000E+00
  0.000000E+00  1.445312E+01  0.000000E+00
  0.000000E+00  1.484375E+01  0.000000E+00
  0.000000E+00  1.523438E+01  0.000000E+00
  0.000000E+00  1.562500E+01  0.000000E+00
  0.000000E+00  1.601562E+01  0.000000E+00
  0.000000E+00  1.640625E+01  0.000000E+00
  0.000000E+00  1.679688E+01  0.000000E+00
  0.000000E+00  1.718750E+01  0.000000E+00
  0.000000E+00  1.757812E+01  0.000000E+00
  0.000000E+00  1.796875E+01  0.000000E+00
  0.000000E+00  1.835938E+01  0.000000E+00
  0.000000E+00  1.875000E+01  0.000000E+00
  0.000000E+00  1.914062E+01  0.000000E+00
  0.000000E+00  1.953125E+01  0.000000E+00
  0.000000E+00  1.992188E+01  0.000000E+00
  0.000000E+00  2.031250E+01  0.000000E+00
  0.000000E+00  2.070312E+01  0.000000E+00
  0.000000E+00  2.109375E+01  0.000000E+00
  0.000000E+00  2.148438E+01  0.000000E+00
  0.000000E+00  2.187500E+01  0.000000E+00
  0.000000E+00  2.226562E+01  0.000000E+00
  0.000000E+00  2.265625E+01  0.000000E+00
  0.000000E+00  2.304688E+01  0.000000E+00
  0.000000E+00  2.343750E+01  0.000000E+00
  0.000000E+00  2.382812E+01  0.000000E+00
  0.000000E+00  2.421875E+01  0.000000E+00
  0.000000E+00  2.460938E+01  0.000000E+00
  3.906250E-01  0.000000E+00  0.000000E+00
  3.906250E-01  3.906250E-01  0.000000E+00
  3.906250E-01  7.812500E-01  0.000000E+00
  3.906250E-01  1.171875E+00  0.000000E+00
  3.906250E-01  1.562500E+00  0.000000E+00
  3.906250E-01  1.953125E+00  0.000000E+00
  3.906250E-01  2.343750E+00  0.000000E+00
  3.906250E-01  2.734375E+00  0.000000E+00
  3.906250E-01  3.125000E+00  0.000000E+00
  3.906250E-01  3.515625E+00  0.000000E+00
  3.906250E-01  3.906250E+00  0.000000E+00
  3.906250E-01  4.296875E+00  0.000000E+00
  3.906250E-01  4.687500E+00  0.000000E+00
  3.906250E-01  5.078125E+00  0.000000E+00
  3.906250E-01  5.468750E+00  0.000000E+00
  3.906250E-01  5.859375E+00  0.000000E+00
  3.906250E-01  6.250000E+00  0.000000E+00
  3.906250E-01  6.640625E+00  0.000000E+00
  3.906250E-01  7.031250E+00  0.000000E+00
  3.906250E-01  7.421875E+00  0.000000E+00
  3.906250E-01  7.812500E+00  0.000000E+00
  3.906250E-01  8.203125E+00  0.000000E+00
  3.906250E-01  8.593750E+00  0.000000E+00
  3.906250E-01  8.984375E+00  0.000000E+00
  3.906250E-01  9.375000E+00  0.000000E+00
  3.906250E-01  9.765625E+00  0.000000E+00
  3.906250E-01  1.015625E+01  0.000000E+00
  3.906250E-01  1.054688E+01  0.000000E+00
  3.906250E-01  1.093750E+01  0.000000E+00
  3.906250E-01  1.132812E+01  0.000000E+00
  3.906250E-01  1.171875E+01  0.000000E+00
  3.906250E-01  1.210938E+01  0.000000E+00
  3.906250E-01  1.250000E+01  0.000000E+00
  3.906250E-01  1.289062E+01  0.000000E+00
  3.906250E-01  1.328125E+01  0.000000E+00
  3.906250E-01  1.367188E+01  0.000000E+00
  3.906250E-01  1.406250E+01  0.000000E+00
  3.906250E-01  1.445312E+01  0.000000E+00
  3.906250E-01  1.484375E+01  0.000000E+00
  3.906250E-01  1.523438E+01  0.000000E+00
  3.906250E-01  1.562500E+01  0.000000E+00
  3.906250E-01  1.601562E+01  0.000000E+00
  3.906250E-01  1.640625E+01  0.000000E+00
  3.906250E-01  1.679688E+01  0.000000E+00
  3.906250E-01  1.718750E+01  0.000000E+00
  3.906250E-01  1.757812E+01  0.000000E+00
  3.906250E-01  1.796875E+01  0.000000E+00
  3.906250E-01  1.835938E+01  0.000000E+00
  3.906250E-01  1.875000E+01  0.000000E+00
  3.906250E-01  1.914062E+01  0.000000E+00
  3.906250E-01  1.953125E+01  0.000000E+00
  3.906250E-01  1.992188E+01  0.000000E+00
  3.906250E-01  2.031250E+01  0.000000E+00
  3.906250E-01  2.070312E+01  0.000000E+00
  3.906250E-01  2.109375E+01  0.000000E+00
  3.906250E-01  2.148438E+01  0.000000E+00
  3.906250E-01  2.187500E+01  0.000000E+00
  3.906250E-01  2.226562E+01  0.000000E+00
  3.906250E-01  2.265625E+01  0.000000E+00
  3.906250E-01  2.304688E+01  0.000000E+00
  3.906250E-01  2.343750E+01  0.000000E+00
  3.906250E-01  2.382812E+01  0.000000E+00
  3.906250E-01  2.421875E+01  0.000000E+00
  3.906250E-01  2.460938E+01  0.000000E+00
  7.812500E-01  0.000000E+00  0.000000E+00
  7.812500E-01  3.906250E-01  0.000000E+00
  7.812500E-01  7.812500E-01  0.000000E+00
  7.812500E-01  1.171875E+00  0.000000E+00
  7.812500E-01  1.562500E+00  0.000000E+00
  7.812500E-01  1.953125E+00  0.000000E+00
  7.812500E-01  2.343750E+00  0.000000E+00
  7.812500E-01  2.734375E+00  0.000000E+00
  7.812500E-01  3.125000E+00  0.000000E+00
  7.812500E-01  3.515625E+00  0.000000E+00
  7.812500E-01  3.906250E+00  0.000000E+00
  7.812500E-01  4.296875E+00  0.000000E+00
  7.812500E-01  4.687500E+00  0.000000E+00
  7.812500E-01  5.078125E+00  0.000000E+00
  7.812500E-01  5.468750E+00  0.000000E+00
  7.812500E-01  5.859375E+00  0.000000E+00
  7.812500E-01  6.250000E+00  0.000000E+00
  7.812500E-01  6.640625E+00  0.000000E+00
  7.812500E-01  7.031250E+00  0.000000E+00
  7.812500E-01  7.421875E+00  0.000000E+00
  7.812500E-01  7.812500E+00  0.000000E+00
  7.812500E-01  8.203125E+00  0.000000E+00
  7.812500E-01  8.593750E+00  0.000000E+00
  7.812500E-01  8.984375E+00  0.000000E+00
  7.812500E-01  9.375000E+00  0.000000E+00
  7.812500E-01  9.765625E+00  0.000000E+00
  7.812500E-01  1.015625E+01  0.000000E+00
  7.812500E-01  1.054688E+01  0.000000E+00
  7.812500E-01  1.093750E+01  0.000000E+00
  7.812500E-01  1.132812E+01  0.000000E+00
  7.812500E-01  1.171875E+01  0.000000E+00
  7.812500E-01  1.210938E+01  0.000000E+00
  7.812500E-01  1.250000E+01  0.000000E+00
  7.812500E-01  1.289062E+01  0.000000E+00
  7.812500E-01  1.328125E+01  0.000000E+00
  7.812500E-01  1.367188E+01  0.000000E+00
  7.812500E-01  1.406250E+01  0.000000E+00
  7.812500E-01  1.445312E+01  0.000000E+00
  7.812500E-01  1.484375E+01  0.000000E+00
  7.812500E-01  1.523438E+01  0.000000E+00
  7.812500E-01  1.562500E+01  0.000000E+00
  7.812500E-01  1.601562E+01  0.000000E+00
  7.812500E-01  1.640625E+01  0.000000E+00
  7.812500E-01  1.679688E+01  0.000000E+00
  7.812500E-01  1.718750E+01  0.000000E+00
  7.812500E-01  1.757812E+01  0.000000E+00
  7.812500E-01  1.796875E+01  0.000000E+00
  7.812500E-01  1.835938E+01  0.000000E+00
  7.812500E-01  1.875000E+01  0.000000E+00
  7.812500E-01  1.914062E+01  0.000000E+00
  7.812500E-01  1.953125E+01  0.000000E+00
  7.812500E-01  1.992188E+01  0.000000E+00
  7.812500E-01  2.031250E+01  0.000000E+00
  7.812500E-01  2.070312E+01  0.000000E+00
  7.812500E-01  2.109375E+01  0.000000E+00
  7.812500E-01  2.148438E+01  0.000000E+00
  7.812500E-01  2.187500E+01  0.000000E+00
  7.812500E-01  2.226562E+01  0.000000E+00
  7.812500E-01  2.265625E+01  0.000000E+00
  7.812500E-01  2.304688E+01  0.000000E+00
  7.812500E-01  2.343750E+01  0.000000E+00
  7.812500E-01  2.382812E+01  0.000000E+00
  7.812500E-01  2.421875E+01  0.000000E+00
  7.812500E-01  2.460938E+01  0.000000E+00
  1.171875E+00  0.000000E+00  0.000000E+00
  1.171875E+00  3.906250E-01  0.000000E+00
  1.171875E+00  7.812500E-01  0.000000E+00
  1.171875E+00  1.171875E+00  0.000000E+00
  1.171875E+00  1.562500E+00  0.000000E+00
  1.171875E+00  1.953125E+00  0.000000E+00
  1.171875E+00  2.343750E+00  0.000000E+00
  1.171875E+00  2.734375E+00  0.000000E+00
  1.171875E+00  3.125000E+00  0.000000E+00
  1.171875E+00  3.515625E+00  0.000000E+00
  1.171875E+00  3.906250E+00  0.000000E+00
  1.171875E+00  4.296875E+00  0.000000E+00
  1.171875E+00  4.687500E+00  0.000000E+00
  1.171875E+00  5.078125E+00  0.000000E+00
  1.171875E+00  5.468750E+00  0.000000E+00
  1.171875E+00  5.859375E+00  0.000000E+00
  1.171875E+00  6.250000E+00  0.000000E+00
  1.171875E+00  6.640625E+00  0.000000E+00
  1.171875E+00  7.031250E+00  0.000000E+00
  1.171875E+00  7.421875E+00  0.000000E+00
  1.171875E+00  7.812500E+00  0.000000E+00
  1.171875E+00  8.203125E+00  0.000000E+00
  1.171875E+00  8.593750E+00  0.000000E+00
  1.171875E+00  8.984375E+00  0.000000E+00
  1.171875E+00  9.375000E+00  0.000000E+00
  1.171875E+00  9.765625E+00  0.000000E+00
  1.171875E+00  1.015625E+01  0.000000E+00
  1.171875E+00  1.054688E+01  0.000000E+00
  1.171875E+00  1.093750E+01  0.000000E+00
  1.171875E+00  1.132812E+01  0.000000E+00
  1.171875E+00  1.171875E+01  0.000000E+00
  1.171875E+00  1.210938E+01  0.000000E+00
  1.171875E+00  1.250000E+01  0.000000E+00
  1.171875E+00  1.289062E+01  0.000000E+00
  1.171875E+00  1.328125E+01  0.000000E+00
  1.171875E+00  1.367188E+01  0.000000E+00
  1.171875E+00  1.406250E+01  0.000000E+00
  1.171875E+00  1.445312E+01  0.000000E+00
[...]
POINT_DATA   4096
SCALARS CON  float  1
LOOKUP_TABLE default
  4.531789E-01
  4.510586E-01
  4.563351E-01
  4.564826E-01
  4.571878E-01
  4.495975E-01
  4.487393E-01
  4.485801E-01
  4.557147E-01
  4.550178E-01
  4.546720E-01
  4.489452E-01
  4.507040E-01
  4.494765E-01
  4.519926E-01
  4.485092E-01
  4.511839E-01
  4.517013E-01
  4.567913E-01
  4.538226E-01
  4.532142E-01
  4.480925E-01
  4.488564E-01
  4.456392E-01
  4.477896E-01
  4.452345E-01
  4.469294E-01
  4.449420E-01
  4.510148E-01
  4.541453E-01
  4.584063E-01
  4.515224E-01
  4.480125E-01
  4.453197E-01
  4.527554E-01
  4.540400E-01
  4.549062E-01
  4.487389E-01
  4.484455E-01
  4.448260E-01
  4.474418E-01
  4.464453E-01
  4.489586E-01
  4.451012E-01
  4.474633E-01
  4.467013E-01
  4.489421E-01
  4.461334E-01
  4.527356E-01
  4.565076E-01
  4.585766E-01
  4.495440E-01
  4.473110E-01
  4.454529E-01
  4.504091E-01
  4.519801E-01
  4.602207E-01
  4.618452E-01
  4.627281E-01
  4.559711E-01
  4.563242E-01
  4.545640E-01
  4.569951E-01
  4.527553E-01
  4.527837E-01
  4.515238E-01
  4.592916E-01
  4.631777E-01
  4.634640E-01
  4.528364E-01
  4.474585E-01
  4.460190E-01
  4.530371E-01
  4.532732E-01
  4.524823E-01
  4.484377E-01
  4.522327E-01
  4.527741E-01
  4.533356E-01
  4.478674E-01
  4.490705E-01
  4.512152E-01
  4.584608E-01
  4.582921E-01
  4.567646E-01
  4.487818E-01
  4.461304E-01
  4.437405E-01
  4.481938E-01
  4.485938E-01
  4.505131E-01
  4.479017E-01
  4.512689E-01
  4.529530E-01
  4.565984E-01
  4.518759E-01
  4.496122E-01
  4.470181E-01
  4.512133E-01
  4.504762E-01
  4.511375E-01
  4.476456E-01
  4.489596E-01
  4.471705E-01
  4.490275E-01
  4.458206E-01
  4.449047E-01
  4.407603E-01
  4.431595E-01
  4.435007E-01
  4.469014E-01
  4.474361E-01
  4.561697E-01
  4.617618E-01
  4.630369E-01
  4.523937E-01
  4.474776E-01
  4.463056E-01
  4.532214E-01
  4.565774E-01
  4.625599E-01
  4.616573E-01
  4.600781E-01
  4.526909E-01
  4.519830E-01
  4.517231E-01
  4.559684E-01
  4.533876E-01
  4.460953E-01
  4.504452E-01
  4.603230E-01
  4.644864E-01
  4.620902E-01
  4.524484E-01
  4.485824E-01
  4.487002E-01
  4.529411E-01
  4.526671E-01
  4.527836E-01
  4.513777E-01
  4.536594E-01
  4.535278E-01
  4.539000E-01
  4.510437E-01
  4.519500E-01
  4.531383E-01
  4.569425E-01
  4.562511E-01
  4.552542E-01
  4.507033E-01
  4.485913E-01
  4.460944E-01
  4.481683E-01
  4.483226E-01
  4.488269E-01
  4.463186E-01
  4.479095E-01
  4.486980E-01
  4.499702E-01
  4.463313E-01
  4.455712E-01
  4.465309E-01
  4.522659E-01
  4.537013E-01
  4.534521E-01
  4.495131E-01
  4.488735E-01
  4.471814E-01
  4.481318E-01
  4.461395E-01
  4.443942E-01
  4.394546E-01
  4.393391E-01
  4.412330E-01
  4.473220E-01
  4.516605E-01
  4.594267E-01
  4.632578E-01
  4.619178E-01
  4.523631E-01
  4.478109E-01
  4.477415E-01
  4.529612E-01
  4.559263E-01
  4.612374E-01
  4.625234E-01
  4.604967E-01
  4.514821E-01
  4.459716E-01
  4.429922E-01
  4.446752E-01
  4.437521E-01
  4.452238E-01
  4.511429E-01
  4.596427E-01
  4.646074E-01
  4.590508E-01
  4.497855E-01
  4.440287E-01
  4.458648E-01
  4.492696E-01
  4.518572E-01
  4.520953E-01
  4.540657E-01
  4.561051E-01
  4.571268E-01
  4.539941E-01
  4.511734E-01
  4.504444E-01
  4.534334E-01
  4.553351E-01
  4.557686E-01
  4.536147E-01
  4.523287E-01
  4.513511E-01
  4.526458E-01
  4.535017E-01
  4.538802E-01
  4.512525E-01
  4.484651E-01
  4.458151E-01
  4.464268E-01
  4.481559E-01
  4.506611E-01
  4.508689E-01
  4.510587E-01
  4.502550E-01
  4.500104E-01
  4.484403E-01
  4.480662E-01
  4.487399E-01
  4.522425E-01
  4.533048E-01
  4.504973E-01
  4.449344E-01
  4.436145E-01
  4.453620E-01
  4.485272E-01
  4.494120E-01
  4.510540E-01
  4.538055E-01
  4.577517E-01
  4.561627E-01
  4.504774E-01
  4.460341E-01
  4.494650E-01
  4.557274E-01
  4.610858E-01
  4.625563E-01
  4.622075E-01
  4.572007E-01
  4.503531E-01
  4.446102E-01
  4.442147E-01
  4.447177E-01
  4.449554E-01
  4.425291E-01
  4.529008E-01
  4.574457E-01
  4.612931E-01
  4.523352E-01
  4.477170E-01
  4.425876E-01
  4.468336E-01
  4.461096E-01
  4.508572E-01
  4.510836E-01
  4.563860E-01
  4.541675E-01
  4.556103E-01
  4.512304E-01
  4.531110E-01
  4.509475E-01
  4.548943E-01
  4.523013E-01
  4.538200E-01
  4.506599E-01
  4.546714E-01
  4.528149E-01
  4.542424E-01
  4.494316E-01
  4.510420E-01
  4.476893E-01
  4.488045E-01
  4.437079E-01
  4.453851E-01
  4.447540E-01
  4.508495E-01
  4.492283E-01
  4.508806E-01
  4.482642E-01
  4.524904E-01
  4.494856E-01
  4.497247E-01
  4.461026E-01
  4.510170E-01
  4.498188E-01
  4.501653E-01
  4.440718E-01
  4.471957E-01
  4.488113E-01
  4.553877E-01
  4.523506E-01
  4.515807E-01
  4.467258E-01
  4.506724E-01
  4.489900E-01
  4.496785E-01
  4.451319E-01
  4.496674E-01
  4.504787E-01
  4.556205E-01
  4.549271E-01
  4.593484E-01
  4.550695E-01
  4.526222E-01
  4.446498E-01
  4.439578E-01
  4.390327E-01
  4.414214E-01
  4.482622E-01
  4.554586E-01
  4.553739E-01
  4.587629E-01
  4.502651E-01
  4.472453E-01
  4.399078E-01
  4.428947E-01
  4.410794E-01
  4.475207E-01
  4.475545E-01
  4.541234E-01
  4.521795E-01
  4.549146E-01
  4.487635E-01
  4.501246E-01
  4.472614E-01
  4.538276E-01
  4.531613E-01
  4.571593E-01
  4.525145E-01
  4.551066E-01
  4.504609E-01
  4.512337E-01
  4.447425E-01
  4.478941E-01
  4.468092E-01
  4.516085E-01
  4.458957E-01
  4.475551E-01
  4.478703E-01
  4.579934E-01
  4.555443E-01
  4.531921E-01
  4.443164E-01
  4.477336E-01
  4.463063E-01
  4.501920E-01
  4.474780E-01
  4.541908E-01
  4.516058E-01
  4.499785E-01
  4.417817E-01
  4.490457E-01
  4.550489E-01
  4.639562E-01
  4.568057E-01
  4.517159E-01
  4.425478E-01
  4.471266E-01
  4.471233E-01
  4.505068E-01
  4.447876E-01
  4.488231E-01
  4.481266E-01
  4.530074E-01
  4.491704E-01
  4.523134E-01
  4.487064E-01
  4.523571E-01
  4.493327E-01
  4.525084E-01
  4.474647E-01
  4.501069E-01
  4.493034E-01
  4.536242E-01
  4.523532E-01
  4.530386E-01
  4.481918E-01
  4.479361E-01
  4.450726E-01
  4.460933E-01
  4.428668E-01
  4.459627E-01
  4.476725E-01
  4.525425E-01
  4.499769E-01
  4.497316E-01
  4.466113E-01
  4.495179E-01
  4.498236E-01
  4.550050E-01
  4.554725E-01
  4.576403E-01
  4.542051E-01
  4.550749E-01
  4.505564E-01
  4.465244E-01
  4.380004E-01
  4.388624E-01
  4.418658E-01
  4.493101E-01
  4.480144E-01
  4.484792E-01
  4.488685E-01
  4.563747E-01
  4.549053E-01
  4.511525E-01
  4.454911E-01
  4.506121E-01
  4.528290E-01
  4.547750E-01
  4.508249E-01
  4.526239E-01
  4.497942E-01
  4.478653E-01
  4.425823E-01
  4.474839E-01
  4.537437E-01
  4.626938E-01
  4.602359E-01
  4.552247E-01
  4.464247E-01
  4.474535E-01
  4.479714E-01
  4.505797E-01
  4.468866E-01
  4.477420E-01
  4.450116E-01
  4.458531E-01
  4.435913E-01
  4.472945E-01
  4.481526E-01
  4.534783E-01
  4.536384E-01
  4.544972E-01
  4.490840E-01
  4.496367E-01
  4.509643E-01
  4.495826E-01
  4.493567E-01
  4.515346E-01
  4.516613E-01
  4.515144E-01
  4.499268E-01
  4.489209E-01
  4.469605E-01
  4.477289E-01
  4.493772E-01
  4.519776E-01
  4.514604E-01
  4.501071E-01
  4.481609E-01
  4.496508E-01
  4.525265E-01
  4.576969E-01
  4.609071E-01
  4.613978E-01
  4.571653E-01
  4.539621E-01
  4.510741E-01
  4.480252E-01
  4.426398E-01
  4.414778E-01
  4.450277E-01
  4.510526E-01
  4.517281E-01
  4.508715E-01
  4.531972E-01
  4.603424E-01
  4.613704E-01
  4.552294E-01
  4.482012E-01
  4.495865E-01
  4.538268E-01
  4.561058E-01
  4.546371E-01
  4.553631E-01
  4.545373E-01
  4.508365E-01
  4.458422E-01
  4.477988E-01
  4.538003E-01
  4.595914E-01
  4.588737E-01
  4.546622E-01
  4.496055E-01
  4.496574E-01
  4.508767E-01
  4.509000E-01
  4.480933E-01
  4.482236E-01
  4.493841E-01
  4.505844E-01
  4.483724E-01
  4.465479E-01
  4.461570E-01
  4.505092E-01
  4.547019E-01
  4.570685E-01
  4.554933E-01
  4.539439E-01
  4.443071E-01
  4.452464E-01
  4.471503E-01
  4.515530E-01
  4.528559E-01
  4.550748E-01
  4.559229E-01
  4.565675E-01
  4.532332E-01
  4.525678E-01
  4.531722E-01
  4.550628E-01
  4.521708E-01
  4.501823E-01
  4.499650E-01
  4.544109E-01
  4.571358E-01
  4.602326E-01
  4.604861E-01
  4.596300E-01
  4.547098E-01
  4.525906E-01
  4.512032E-01
  4.504777E-01
  4.461387E-01
  4.450482E-01
  4.466188E-01
  4.514834E-01
  4.519786E-01
  4.512980E-01
  4.509945E-01
  4.557565E-01
  4.571771E-01
  4.556094E-01
  4.529366E-01
  4.564397E-01
  4.587946E-01
  4.580334E-01
  4.527589E-01
  4.510083E-01
  4.502474E-01
  4.511090E-01
  4.492095E-01
  4.488659E-01
  4.483451E-01
  4.509454E-01
  4.517389E-01
  4.523023E-01
  4.505869E-01
  4.520259E-01
  4.525532E-01
  4.527282E-01
  4.497097E-01
  4.495241E-01
  4.500461E-01
  4.528708E-01
  4.524523E-01
  4.512601E-01
  4.481567E-01
  4.486515E-01
  4.485938E-01
  4.489302E-01
  4.466867E-01
  4.461866E-01
  4.443556E-01
  4.444100E-01
  4.473134E-01
  4.538169E-01
  4.547334E-01
  4.548271E-01
  4.532752E-01
  4.546674E-01
  4.535423E-01
  4.543738E-01
  4.538102E-01
  4.554457E-01
  4.538167E-01
  4.533065E-01
  4.512863E-01
  4.524188E-01
  4.519043E-01
  4.545399E-01
  4.562409E-01
  4.578305E-01
  4.528532E-01
  4.494163E-01
  4.478718E-01
  4.510646E-01
  4.513464E-01
  4.529133E-01
  4.532299E-01
  4.555182E-01
  4.532565E-01
  4.516174E-01
  4.505205E-01
  4.551255E-01
  4.567435E-01
  4.561759E-01
  4.522912E-01
  4.536392E-01
  4.545494E-01
  4.548223E-01
  4.505750E-01
  4.497754E-01
  4.489719E-01
  4.505260E-01
  4.500360E-01
  4.517538E-01
  4.499515E-01
  4.483829E-01
  4.449574E-01
  4.458984E-01
  4.476457E-01
  4.532695E-01
  4.552836E-01
  4.550403E-01
  4.503283E-01
  4.506006E-01
  4.538049E-01
  4.602044E-01
  4.596855E-01
  4.553013E-01
  4.478055E-01
  4.461680E-01
  4.459514E-01
  4.486531E-01
  4.484913E-01
  4.483839E-01
  4.429031E-01
  4.441877E-01
  4.473895E-01
  4.511684E-01
  4.515045E-01
  4.517533E-01
  4.528269E-01
  4.545663E-01
  4.536305E-01
  4.532551E-01
  4.537038E-01
  4.547258E-01
  4.528306E-01
  4.508671E-01
  4.496159E-01
  4.498686E-01
  4.487899E-01
  4.494348E-01
  4.516462E-01
  4.539044E-01
  4.517814E-01
  4.489084E-01
  4.470884E-01
  4.476700E-01
  4.483015E-01
  4.509875E-01
  4.538097E-01
  4.559248E-01
  4.540574E-01
  4.504581E-01
  4.467362E-01
  4.466724E-01
  4.476599E-01
  4.491924E-01
  4.505580E-01
  4.540402E-01
  4.555844E-01
  4.539983E-01
  4.488596E-01
  4.445956E-01
  4.423305E-01
  4.450877E-01
  4.496739E-01
  4.527938E-01
  4.505951E-01
  4.470782E-01
  4.444034E-01
  4.457319E-01
  4.493836E-01
  4.545460E-01
  4.562870E-01
  4.547500E-01
  4.508277E-01
  4.496523E-01
  4.515412E-01
  4.563928E-01
  4.585861E-01
  4.568744E-01
  4.518865E-01
  4.492824E-01
  4.484043E-01
  4.483409E-01
  4.463387E-01
  4.446137E-01
  4.468818E-01
  4.458734E-01
  4.472895E-01
  4.502280E-01
  4.512985E-01
  4.513590E-01
  4.509627E-01
  4.509212E-01
  4.501452E-01
  4.502083E-01
  4.509040E-01
  4.524939E-01
  4.526796E-01
  4.513143E-01
  4.485323E-01
  4.470099E-01
  4.470988E-01
  4.503043E-01
  4.550090E-01
  4.581807E-01
  4.558325E-01
  4.510191E-01
  4.472808E-01
  4.466677E-01
  4.477788E-01
  4.515888E-01
  4.562645E-01
  4.591331E-01
  4.569694E-01
  4.524953E-01
  4.489515E-01
  4.488734E-01
  4.494167E-01
  4.489166E-01
  4.473704E-01
  4.481470E-01
  4.501885E-01
  4.515384E-01
  4.501017E-01
  4.475067E-01
  4.444316E-01
  4.442401E-01
  4.477998E-01
  4.531410E-01
  4.546599E-01
  4.523953E-01
  4.491180E-01
  4.492697E-01
  4.524502E-01
  4.562042E-01
  4.557936E-01
  4.519929E-01
  4.478298E-01
  4.475692E-01
  4.506526E-01
  4.552264E-01
  4.568236E-01
  4.549871E-01
  4.518617E-01
  4.520323E-01
  4.542521E-01
  4.556422E-01
  4.535839E-01
  4.502818E-01
  4.451088E-01
  4.479895E-01
  4.476605E-01
  4.498583E-01
  4.500883E-01
  4.533168E-01
  4.530034E-01
  4.525471E-01
  4.481513E-01
  4.486281E-01
  4.496778E-01
  4.530200E-01
  4.506691E-01
  4.490858E-01
  4.466683E-01
  4.497917E-01
  4.517622E-01
  4.561385E-01
  4.572133E-01
  4.591359E-01
  4.560304E-01
  4.539543E-01
  4.488578E-01
  4.463770E-01
  4.431952E-01
  4.466015E-01
  4.505472E-01
  4.561067E-01
  4.551146E-01
  4.531974E-01
  4.483975E-01
  4.485178E-01
  4.478726E-01
  4.495728E-01
  4.487470E-01
  4.515169E-01
  4.515669E-01
  4.524751E-01
  4.492734E-01
  4.476258E-01
  4.437476E-01
  4.452321E-01
  4.469034E-01
  4.505306E-01
  4.498119E-01
  4.517743E-01
  4.519995E-01
  4.548574E-01
  4.547997E-01
  4.556509E-01
  4.511066E-01
  4.483046E-01
  4.449976E-01
  4.460838E-01
  4.452067E-01
  4.480458E-01
  4.498884E-01
  4.541012E-01
  4.542915E-01
  4.563227E-01
  4.548267E-01
  4.531205E-01
  4.470304E-01
  4.456459E-01
  4.485046E-01
  4.508244E-01
  4.493348E-01
  4.522847E-01
  4.523139E-01
  4.543482E-01
  4.505959E-01
  4.489915E-01
  4.451733E-01
  4.473091E-01
  4.476964E-01
  4.513639E-01
  4.499408E-01
  4.498473E-01
  4.463488E-01
  4.489106E-01
  4.503302E-01
  4.550440E-01
  4.552984E-01
  4.578986E-01
  4.552231E-01
  4.541309E-01
  4.492568E-01
  4.485846E-01
  4.455665E-01
  4.474821E-01
  4.478833E-01
  4.523411E-01
  4.519124E-01
  4.530834E-01
  4.512165E-01
  4.546926E-01
  4.545269E-01
  4.544766E-01
  4.488807E-01
  4.485036E-01
  4.473155E-01
  4.499593E-01
  4.490850E-01
  4.520537E-01
  4.508901E-01
  4.515154E-01
  4.482928E-01
  4.493067E-01
  4.481479E-01
  4.514422E-01
  4.510859E-01
  4.529146E-01
  4.506390E-01
  4.510544E-01
  4.466476E-01
  4.457973E-01
  4.441299E-01
  4.479445E-01
  4.482075E-01
  4.510493E-01
  4.502848E-01
  4.530455E-01
  4.525242E-01
  4.552372E-01
  4.531140E-01
  4.522984E-01
  4.478346E-01
  4.490369E-01
  4.486988E-01
  4.510370E-01
  4.497118E-01
  4.498378E-01
  4.503961E-01
  4.525957E-01
  4.524314E-01
  4.514470E-01
  4.484407E-01
  4.478372E-01
  4.479290E-01
  4.492923E-01
  4.478808E-01
  4.469791E-01
  4.469883E-01
  4.504828E-01
  4.519298E-01
  4.515788E-01
  4.494989E-01
  4.511615E-01
  4.534210E-01
  4.551253E-01
  4.525526E-01
  4.497377E-01
  4.461204E-01
  4.442215E-01
  4.424142E-01
  4.445880E-01
  4.475451E-01
  4.500013E-01
  4.489297E-01
  4.496765E-01
  4.504736E-01
  4.512097E-01
  4.498973E-01
  4.509074E-01
  4.507283E-01
  4.498343E-01
  4.477879E-01
  4.493173E-01
  4.512887E-01
  4.534691E-01
  4.515676E-01
  4.483946E-01
  4.455227E-01
  4.478163E-01
  4.498700E-01
  4.502096E-01
  4.473892E-01
  4.458199E-01
  4.437553E-01
  4.448084E-01
  4.475609E-01
  4.517110E-01
  4.518251E-01
  4.510031E-01
  4.498728E-01
  4.515988E-01
  4.521743E-01
  4.519572E-01
  4.481287E-01
  4.446247E-01
  4.422978E-01
  4.452306E-01
  4.563259E-01
  4.524814E-01
  4.501619E-01
  4.481187E-01
  4.504169E-01
  4.503154E-01
  4.515166E-01
  4.503547E-01
  4.511794E-01
  4.485503E-01
  4.477240E-01
  4.462098E-01
  4.482930E-01
  4.480580E-01
  4.504675E-01
  4.517205E-01
  4.538714E-01
  4.507125E-01
  4.501191E-01
  4.513842E-01
  4.566093E-01
  4.561098E-01
  4.541135E-01
  4.501762E-01
  4.498650E-01
  4.462700E-01
  4.443591E-01
  4.435291E-01
  4.480717E-01
  4.487879E-01
  4.490348E-01
  4.482318E-01
  4.515350E-01
  4.507661E-01
  4.498819E-01
  4.478499E-01
  4.494501E-01
  4.477715E-01
  4.484564E-01
  4.497968E-01
  4.542084E-01
  4.532346E-01
  4.517743E-01
  4.488151E-01
  4.505084E-01
  4.507562E-01
  4.509546E-01
  4.463633E-01
  4.448136E-01
  4.437072E-01
  4.458303E-01
  4.460846E-01
  4.505582E-01
  4.544715E-01
  4.587699E-01
  4.562809E-01
  4.527553E-01
  4.472446E-01
  4.461121E-01
  4.440184E-01
  4.446283E-01
  4.448873E-01
  4.502212E-01
  4.538305E-01
  4.597425E-01
  4.552310E-01
  4.513838E-01
  4.467596E-01
  4.482632E-01
  4.485985E-01
  4.519634E-01
  4.518853E-01
  4.531723E-01
  4.500513E-01
  4.497642E-01
  4.472474E-01
  4.474109E-01
  4.457579E-01
  4.508355E-01
  4.556954E-01
  4.600673E-01
  4.553559E-01
  4.522055E-01
  4.509153E-01
  4.561589E-01
  4.558415E-01
  4.531668E-01
  4.466582E-01
  4.456473E-01
  4.428501E-01
  4.430177E-01
  4.433590E-01
  4.489240E-01
  4.478966E-01
  4.449613E-01
  4.413416E-01
  4.462416E-01
  4.499134E-01
  4.545253E-01
  4.544270E-01
  4.547941E-01
  4.495856E-01
  4.475697E-01
  4.457483E-01
  4.485386E-01
  4.478932E-01
  4.492733E-01
  4.482526E-01
  4.515772E-01
  4.520585E-01
  4.520982E-01
  4.462507E-01
  4.449921E-01
  4.448778E-01
  4.488131E-01
  4.491023E-01
  4.527693E-01
  4.542182E-01
  4.562526E-01
  4.515566E-01
  4.484352E-01
  4.443018E-01
  4.446062E-01
  4.417687E-01
  4.421256E-01
  4.429195E-01
  4.505580E-01
  4.558319E-01
  4.642726E-01
  4.583404E-01
  4.528359E-01
  4.498137E-01
  4.498035E-01
  4.483222E-01
  4.468046E-01
  4.464511E-01
  4.490280E-01
  4.501136E-01
  4.499678E-01
  4.483000E-01
  4.471388E-01
  4.456042E-01
  4.475641E-01
  4.519853E-01
  4.562989E-01
  4.554387E-01
  4.530597E-01
  4.518530E-01
  4.532889E-01
  4.522242E-01
  4.491311E-01
  4.458533E-01
  4.459795E-01
  4.459716E-01
  4.464410E-01
  4.481077E-01
  4.514570E-01
  4.503502E-01
  4.469780E-01
  4.463661E-01
  4.519154E-01
  4.564696E-01
  4.570602E-01
  4.538065E-01
  4.510986E-01
  4.482973E-01
  4.479195E-01
  4.487541E-01
  4.496023E-01
  4.473603E-01
  4.470061E-01
  4.504278E-01
  4.563277E-01
  4.570185E-01
  4.519881E-01
  4.445678E-01
  4.428190E-01
  4.462350E-01
  4.511299E-01
  4.518793E-01
  4.519044E-01
  4.528140E-01
  4.543703E-01
  4.515902E-01
  4.472343E-01
  4.439801E-01
  4.441714E-01
  4.440616E-01
  4.453131E-01
  4.494311E-01
  4.578989E-01
  4.639583E-01
  4.583713E-01
  4.563802E-01
  4.522533E-01
  4.497762E-01
  4.488841E-01
  4.484300E-01
  4.469745E-01
  4.465448E-01
  4.472910E-01
  4.490889E-01
  4.499907E-01
  4.491617E-01
  4.454496E-01
  4.423980E-01
  4.430789E-01
  4.475949E-01
  4.509943E-01
  4.511567E-01
  4.483838E-01
  4.464261E-01
  4.468555E-01
  4.492330E-01
  4.497682E-01
  4.485497E-01
  4.468886E-01
  4.461681E-01
  4.459513E-01
  4.484026E-01
  4.515580E-01
  4.515434E-01
  4.478904E-01
  4.473787E-01
  4.517760E-01
  4.570817E-01
  4.579611E-01
  4.552688E-01
  4.510890E-01
  4.484694E-01
  4.475471E-01
  4.479090E-01
  4.474117E-01
  4.470801E-01
  4.480212E-01
  4.515032E-01
  4.547446E-01
  4.549351E-01
  4.502828E-01
  4.448352E-01
  4.426565E-01
  4.453963E-01
  4.488926E-01
  4.505814E-01
  4.504636E-01
  4.508270E-01
  4.497549E-01
  4.470390E-01
  4.452501E-01
  4.478750E-01
  4.515183E-01
  4.524243E-01
  4.502270E-01
  4.497059E-01
  4.523856E-01
  4.567736E-01
  4.556550E-01
  4.523143E-01
  4.517500E-01
  4.496849E-01
  4.509822E-01
  4.483822E-01
  4.472922E-01
  4.440846E-01
  4.454110E-01
  4.448143E-01
  4.469549E-01
  4.462889E-01
  4.479064E-01
  4.458468E-01
  4.461660E-01
  4.440283E-01
  4.453180E-01
  4.444343E-01
  4.459268E-01
  4.437315E-01
  4.452488E-01
  4.469588E-01
  4.528583E-01
  4.541125E-01
  4.550714E-01
  4.513784E-01
  4.511885E-01
  4.508288E-01
  4.541661E-01
  4.525543E-01
  4.526211E-01
  4.525697E-01
  4.575868E-01
  4.571198E-01
  4.541541E-01
  4.467722E-01
  4.455498E-01
  4.455463E-01
  4.496573E-01
  4.503282E-01
  4.519479E-01
  4.490250E-01
  4.499034E-01
  4.511298E-01
  4.551730E-01
  4.520854E-01
  4.483123E-01
  4.426835E-01
  4.430389E-01
  4.432129E-01
  4.467008E-01
  4.463632E-01
  4.485673E-01
  4.494181E-01
  4.530000E-01
  4.514383E-01
  4.520150E-01
  4.523399E-01
  4.571429E-01
  4.573262E-01
  4.573612E-01
  4.539900E-01
  4.551337E-01
  4.545848E-01
  4.495707E-01
  4.481058E-01
  4.515962E-01
  4.476200E-01
  4.502221E-01
  4.478110E-01
  4.520235E-01
  4.477126E-01
  4.473456E-01
  4.415732E-01
  4.456275E-01
  4.453927E-01
  4.508118E-01
  4.492375E-01
  4.537422E-01
  4.498650E-01
  4.498892E-01
  4.435842E-01
  4.448073E-01
  4.405801E-01
  4.451780E-01
  4.474095E-01
  4.563492E-01
  4.544670E-01
  4.548152E-01
  4.486349E-01
  4.515414E-01
  4.508805E-01
  4.561640E-01
  4.513738E-01
  4.510236E-01
  4.472690E-01
  4.531361E-01
  4.514165E-01
  4.525222E-01
  4.465154E-01
  4.491280E-01
  4.469421E-01
  4.500474E-01
  4.457747E-01
  4.489461E-01
  4.474480E-01
  4.523505E-01
  4.496507E-01
  4.517053E-01
  4.463963E-01
  4.480956E-01
  4.449648E-01
  4.481814E-01