# vtk DataFile Version 2.0
title
ASCII
DATASET STRUCTURED_GRID
DIMENSIONS   64   64    1
POINTS   4096  float
  0.000000E+00  0.000000E+00  0.000000E+00
  0.000000E+00  3.906250E-01  0.000000E+00
  0.000000E+00  7.812500E-01  0.000000E+00
  0.000000E+00  1.171875E+00  0.000000E+00
  0.000000E+00  1.562500E+00  0.000000E+00
  0.000000E+00  1.953125E+00  0.000000E+00
  0.000000E+00  2.343750E+00  0.000000E+00
  0.000000E+00  2.734375E+00  0.000000E+00
  0.000000E+00  3.125000E+00  0.000000E+00
  0.000000E+00  3.515625E+00  0.000000E+00
  0.000000E+00  3.906250E+00  0.000000E+00
  0.000000E+00  4.296875E+00  0.000000E+00
  0.000000E+00  4.687500E+00  0.000000E+00
  0.000000E+00  5.078125E+00  0.000000E+00
  0.000000E+00  5.468750E+00  0.000000E+00
  0.000000E+00  5.859375E+00  0.000000E+00
  0.000000E+00  6.250000E+00  0.000000E+00
  0.000000E+00  6.640625E+00  0.000000E+00
  0.000000E+00  7.031250E+00  0.000000E+00
  0.000000E+00  7.421875E+00  0.000000E+00
  0.000000E+00  7.812500E+00  0.000000E+00
  0.000000E+00  8.203125E+00  0.000000E+00
  0.000000E+00  8.593750E+00  0.000000E+00
  0.000000E+00  8.984375E+00  0.000000E+00
  0.000000E+00  9.375000E+00  0.000000E+00
  0.000000E+00  9.765625E+00  0.000000E+00
  0.000000E+00  1.015625E+01  0.000000E+00
  0.000000E+00  1.054688E+01  0.000000E+00
  0.000000E+00  1.093750E+01  0.000000E+00
  0.000000E+00  1.132812E+01  0.000000E+00
  0.000000E+00  1.171875E+01  0.000000E+00
  0.000000E+00  1.210938E+01  0.000000E+00
  0.000000E+00  1.250000E+01  0.000000E+00
  0.000000E+00  1.289062E+01  0.000000E+00
  0.000000E+00  1.328125E+01  0.000000E+00
  0.000000E+00  1.367188E+01  0.000000E+00
  0.000000E+00  1.406250E+01  0.000000E+00
  0.000000E+00  1.445312E+01  0.000000E+00
  0.000000E+00  1.484375E+01  0.000000E+00
  0.000000E+00  1.523438E+01  0.000000E+00
  0.000000E+00  1.562500E+01  0.000000E+00
  0.000000E+00  1.601562E+01  0.000000E+00
  0.000000E+00  1.640625E+01  0.000000E+00
  0.000000E+00  1.679688E+01  0.000000E+00
  0.000000E+00  1.718750E+01  0.000000E+00
  0.000000E+00  1.757812E+01  0.000000E+00
  0.000000E+00  1.796875E+01  0.000000E+00
  0.000000E+00  1.835938E+01  0.000000E+00
  0.000000E+00  1.875000E+01  0.000000E+00
  0.000000E+00  1.914062E+01  0.000000E+00
  0.000000E+00  1.953125E+01  0.000000E+00
  0.000000E+00  1.992188E+01  0.000000E+00
  0.000000E+00  2.031250E+01  0.000000E+00
  0.000000E+00  2.070312E+01  0.000000E+00
  0.000000E+00  2.109375E+01  0.000000E+00
  0.000000E+00  2.148438E+01  0.000000E+00
  0.000000E+00  2.187500E+01  0.000000E+00
  0.000000E+00  2.226562E+01  0.000000E+00
  0.000000E+00  2.265625E+01  0.000000E+00
  0.000000E+00  2.304688E+01  0.000000E+00
  0.000000E+00  2.343750E+01  0.000000E+00
  0.000000E+00  2.382812E+01  0.000000E+00
  0.000000E+00  2.421875E+01  0.000000E+00
  0.000000E+00  2.460938E+01  0.000000E+00
  3.906250E-01  0.000000E+00  0.000000E+00
  3.906250E-01  3.906250E-01  0.000000E+00
  3.906250E-01  7.812500E-01  0.000000E+00
  3.906250E-01  1.171875E+00  0.000000E+00
  3.906250E-01  1.562500E+00  0.000000E+00
  3.906250E-01  1.953125E+00  0.000000E+00
  3.906250E-01  2.343750E+00  0.000000E+00
  3.906250E-01  2.734375E+00  0.000000E+00
  3.906250E-01  3.125000E+00  0.000000E+00
  3.906250E-01  3.515625E+00  0.000000E+00
  3.906250E-01  3.906250E+00  0.000000E+00
  3.906250E-01  4.296875E+00  0.000000E+00
  3.906250E-01  4.687500E+00  0.000000E+00
  3.906250E-01  5.078125E+00  0.000000E+00
  3.906250E-01  5.468750E+00  0.000000E+00
  3.906250E-01  5.859375E+00  0.000000E+00
  3.906250E-01  6.250000E+00  0.000000E+00
  3.906250E-01  6.640625E+00  0.000000E+00
  3.906250E-01  7.031250E+00  0.000000E+00
  3.906250E-01  7.421875E+00  0.000000E+00
  3.906250E-01  7.812500E+00  0.000000E+00
  3.906250E-01  8.203125E+00  0.000000E+00
  3.906250E-01  8.593750E+00  0.000000E+00
  3.906250E-01  8.984375E+00  0.000000E+00
  3.906250E-01  9.375000E+00  0.000000E+00
  3.906250E-01  9.765625E+00  0.000000E+00
  3.906250E-01  1.015625E+01  0.000000E+00
  3.906250E-01  1.054688E+01  0.000000E+00
  3.906250E-01  1.093750E+01  0.000000E+00
  3.906250E-01  1.132812E+01  0.000000E+00
  3.906250E-01  1.171875E+01  0.000000E+00
  3.906250E-01  1.210938E+01  0.000000E+00
  3.906250E-01  1.250000E+01  0.000000E+00
  3.906250E-01  1.289062E+01  0.000000E+00
  3.906250E-01  1.328125E+01  0.000000E+00
  3.906250E-01  1.367188E+01  0.000000E+00
  3.906250E-01  1.406250E+01  0.000000E+00
  3.906250E-01  1.445312E+01  0.000000E+00
  3.906250E-01  1.484375E+01  0.000000E+00
  3.906250E-01  1.523438E+01  0.000000E+00
  3.906250E-01  1.562500E+01  0.000000E+00
  3.906250E-01  1.601562E+01  0.000000E+00
  3.906250E-01  1.640625E+01  0.000000E+00
  3.906250E-01  1.679688E+01  0.000000E+00
  3.906250E-01  1.718750E+01  0.000000E+00
  3.906250E-01  1.757812E+01  0.000000E+00
  3.906250E-01  1.796875E+01  0.000000E+00
  3.906250E-01  1.835938E+01  0.000000E+00
  3.906250E-01  1.875000E+01  0.000000E+00
  3.906250E-01  1.914062E+01  0.000000E+00
  3.906250E-01  1.953125E+01  0.000000E+00
  3.906250E-01  1.992188E+01  0.000000E+00
  3.906250E-01  2.031250E+01  0.000000E+00
  3.906250E-01  2.070312E+01  0.000000E+00
  3.906250E-01  2.109375E+01  0.000000E+00
  3.906250E-01  2.148438E+01  0.000000E+00
  3.906250E-01  2.187500E+01  0.000000E+00
  3.906250E-01  2.226562E+01  0.000000E+00
  3.906250E-01  2.265625E+01  0.000000E+00
  3.906250E-01  2.304688E+01  0.000000E+00
  3.906250E-01  2.343750E+01  0.000000E+00
  3.906250E-01  2.382812E+01  0.000000E+00
  3.906250E-01  2.421875E+01  0.000000E+00
  3.906250E-01  2.460938E+01  0.000000E+00
  7.812500E-01  0.000000E+00  0.000000E+00
  7.812500E-01  3.906250E-01  0.000000E+00
  7.812500E-01  7.812500E-01  0.000000E+00
  7.812500E-01  1.171875E+00  0.000000E+00
  7.812500E-01  1.562500E+00  0.000000E+00
  7.812500E-01  1.953125E+00  0.000000E+00
  7.812500E-01  2.343750E+00  0.000000E+00
  7.812500E-01  2.734375E+00  0.000000E+00
  7.812500E-01  3.125000E+00  0.000000E+00
  7.812500E-01  3.515625E+00  0.000000E+00
  7.812500E-01  3.906250E+00  0.000000E+00
  7.812500E-01  4.296875E+00  0.000000E+00
  7.812500E-01  4.687500E+00  0.000000E+00
  7.812500E-01  5.078125E+00  0.000000E+00
  7.812500E-01  5.468750E+00  0.000000E+00
  7.812500E-01  5.859375E+00  0.000000E+00
  7.812500E-01  6.250000E+00  0.000000E+00
  7.812500E-01  6.640625E+00  0.000000E+00
  7.812500E-01  7.031250E+00  0.000000E+00
  7.812500E-01  7.421875E+00  0.000000E+00
  7.812500E-01  7.812500E+00  0.000000E+00
  7.812500E-01  8.203125E+00  0.000000E+00
  7.812500E-01  8.593750E+00  0.000000E+00
  7.812500E-01  8.984375E+00  0.000000E+00
  7.812500E-01  9.375000E+00  0.000000E+00
  7.812500E-01  9.765625E+00  0.000000E+00
  7.812500E-01  1.015625E+01  0.000000E+00
  7.812500E-01  1.054688E+01  0.000000E+00
  7.812500E-01  1.093750E+01  0.000000E+00
  7.812500E-01  1.132812E+01  0.000000E+00
  7.812500E-01  1.171875E+01  0.000000E+00
  7.812500E-01  1.210938E+01  0.000000E+00
  7.812500E-01  1.250000E+01  0.000000E+00
  7.812500E-01  1.289062E+01  0.000000E+00
  7.812500E-01  1.328125E+01  0.000000E+00
  7.812500E-01  1.367188E+01  0.000000E+00
  7.812500E-01  1.406250E+01  0.000000E+00
  7.812500E-01  1.445312E+01  0.000000E+00
  7.812500E-01  1.484375E+01  0.000000E+00
  7.812500E-01  1.523438E+01  0.000000E+00
  7.812500E-01  1.562500E+01  0.000000E+00
  7.812500E-01  1.601562E+01  0.000000E+00
  7.812500E-01  1.640625E+01  0.000000E+00
  7.812500E-01  1.679688E+01  0.000000E+00
  7.812500E-01  1.718750E+01  0.000000E+00
  7.812500E-01  1.757812E+01  0.000000E+00
  7.812500E-01  1.796875E+01  0.000000E+00
  7.812500E-01  1.835938E+01  0.000000E+00
  7.812500E-01  1.875000E+01  0.000000E+00
  7.812500E-01  1.914062E+01  0.000000E+00
  7.812500E-01  1.953125E+01  0.000000E+00
  7.812500E-01  1.992188E+01  0.000000E+00
  7.812500E-01  2.031250E+01  0.000000E+00
  7.812500E-01  2.070312E+01  0.000000E+00
  7.812500E-01  2.109375E+01  0.000000E+00
  7.812500E-01  2.148438E+01  0.000000E+00
  7.812500E-01  2.187500E+01  0.000000E+00
  7.812500E-01  2.226562E+01  0.000000E+00
  7.812500E-01  2.265625E+01  0.000000E+00
  7.812500E-01  2.304688E+01  0.000000E+00
  7.812500E-01  2.343750E+01  0.000000E+00
  7.812500E-01  2.382812E+01  0.000000E+00
  7.812500E-01  2.421875E+01  0.000000E+00
  7.812500E-01  2.460938E+01  0.000000E+00
  1.171875E+00  0.000000E+00  0.000000E+00
  1.171875E+00  3.906250E-01  0.000000E+00
  1.171875E+00  7.812500E-01  0.000000E+00
  1.171875E+00  1.171875E+00  0.000000E+00
  1.171875E+00  1.562500E+00  0.000000E+00
  1.171875E+00  1.953125E+00  0.000000E+00
  1.171875E+00  2.343750E+00  0.000000E+00
  1.171875E+00  2.734375E+00  0.000000E+00
  1.171875E+00  3.125000E+00  0.000000E+00
  1.171875E+00  3.515625E+00  0.000000E+00
  1.171875E+00  3.906250E+00  0.000000E+00
  1.171875E+00  4.296875E+00  0.000000E+00
  1.171875E+00  4.687500E+00  0.000000E+00
  1.171875E+00  5.078125E+00  0.000000E+00
  1.171875E+00  5.468750E+00  0.000000E+00
  1.171875E+00  5.859375E+00  0.000000E+00
  1.171875E+00  6.250000E+00  0.000000E+00
  1.171875E+00  6.640625E+00  0.000000E+00
  1.171875E+00  7.031250E+00  0.000000E+00
  1.171875E+00  7.421875E+00  0.000000E+00
  1.171875E+00  7.812500E+00  0.000000E+00
  1.171875E+00  8.203125E+00  0.000000E+00
  1.171875E+00  8.593750E+00  0.000000E+00
  1.171875E+00  8.984375E+00  0.000000E+00
  1.171875E+00  9.375000E+00  0.000000E+00
  1.171875E+00  9.765625E+00  0.000000E+00
  1.171875E+00  1.015625E+01  0.000000E+00
  1.171875E+00  1.054688E+01  0.000000E+00
  1.171875E+00  1.093750E+01  0.000000E+00
  1.171875E+00  1.132812E+01  0.000000E+00
  1.171875E+00  1.171875E+01  0.000000E+00
  1.171875E+00  1.210938E+01  0.000000E+00
  1.171875E+00  1.250000E+01  0.000000E+00
  1.171875E+00  1.289062E+01  0.000000E+00
  1.171875E+00  1.328125E+01  0.000000E+00
  1.171875E+00  1.367188E+01  0.000000E+00
  1.171875E+00  1.406250E+01  0.000000E+00
  1.171875E+00  1.445312E+01  0.000000E+00
[...]
POINT_DATA   4096
SCALARS CON  float  1
LOOKUP_TABLE default
  4.422569E-01
  4.406477E-01
  4.461268E-01
  4.454037E-01
  4.457393E-01
  4.388699E-01
  4.391314E-01
  4.387167E-01
  4.448331E-01
  4.434778E-01
  4.436937E-01
  4.383887E-01
  4.399973E-01
  4.381427E-01
  4.407873E-01
  4.380292E-01
  4.414646E-01
  4.415611E-01
  4.459352E-01
  4.425942E-01
  4.421809E-01
  4.369685E-01
  4.379007E-01
  4.348111E-01
  4.368338E-01
  4.336655E-01
  4.355574E-01
  4.343355E-01
  4.408863E-01
  4.431773E-01
  4.466998E-01
  4.402485E-01
  4.381571E-01
  4.355882E-01
  4.419616E-01
  4.425429E-01
  4.440718E-01
  4.380963E-01
  4.375595E-01
  4.340564E-01
  4.370086E-01
  4.351984E-01
  4.373674E-01
  4.341472E-01
  4.365391E-01
  4.345304E-01
  4.374285E-01
  4.369027E-01
  4.440425E-01
  4.458225E-01
  4.473647E-01
  4.392728E-01
  4.368854E-01
  4.337211E-01
  4.389790E-01
  4.415265E-01
  4.497766E-01
  4.506676E-01
  4.518223E-01
  4.452957E-01
  4.452441E-01
  4.428208E-01
  4.454080E-01
  4.413784E-01
  4.420680E-01
  4.415271E-01
  4.491790E-01
  4.514239E-01
  4.512199E-01
  4.414004E-01
  4.374452E-01
  4.355636E-01
  4.415849E-01
  4.415426E-01
  4.423122E-01
  4.388634E-01
  4.419673E-01
  4.411328E-01
  4.418821E-01
  4.370063E-01
  4.388418E-01
  4.404528E-01
  4.471188E-01
  4.461542E-01
  4.449251E-01
  4.376686E-01
  4.363420E-01
  4.341078E-01
  4.380313E-01
  4.372726E-01
  4.391286E-01
  4.367253E-01
  4.404801E-01
  4.415150E-01
  4.451031E-01
  4.410105E-01
  4.398760E-01
  4.367110E-01
  4.401176E-01
  4.390900E-01
  4.403693E-01
  4.366529E-01
  4.381372E-01
  4.365956E-01
  4.387923E-01
  4.349501E-01
  4.341340E-01
  4.302833E-01
  4.327950E-01
  4.321123E-01
  4.357606E-01
  4.372446E-01
  4.460152E-01
  4.496117E-01
  4.506818E-01
  4.413966E-01
  4.373361E-01
  4.352590E-01
  4.424064E-01
  4.465436E-01
  4.529990E-01
  4.512845E-01
  4.495974E-01
  4.423520E-01
  4.420801E-01
  4.411950E-01
  4.448308E-01
  4.417604E-01
  4.354148E-01
  4.405070E-01
  4.496907E-01
  4.528674E-01
  4.505927E-01
  4.419647E-01
  4.380395E-01
  4.373377E-01
  4.412655E-01
  4.418215E-01
  4.426330E-01
  4.412555E-01
  4.429137E-01
  4.423315E-01
  4.425733E-01
  4.401293E-01
  4.412251E-01
  4.422458E-01
  4.456447E-01
  4.449161E-01
  4.439181E-01
  4.397303E-01
  4.382249E-01
  4.361829E-01
  4.377029E-01
  4.372211E-01
  4.377963E-01
  4.358385E-01
  4.371180E-01
  4.372755E-01
  4.385213E-01
  4.357322E-01
  4.353180E-01
  4.357591E-01
  4.407137E-01
  4.423883E-01
  4.426681E-01
  4.386614E-01
  4.374943E-01
  4.360307E-01
  4.372093E-01
  4.348839E-01
  4.328701E-01
  4.288172E-01
  4.293287E-01
  4.306786E-01
  4.358912E-01
  4.402777E-01
  4.476701E-01
  4.506963E-01
  4.497926E-01
  4.420033E-01
  4.377158E-01
  4.365790E-01
  4.415975E-01
  4.457968E-01
  4.514887E-01
  4.520072E-01
  4.495448E-01
  4.413325E-01
  4.361171E-01
  4.322538E-01
  4.328070E-01
  4.320611E-01
  4.348209E-01
  4.414546E-01
  4.487226E-01
  4.533195E-01
  4.482884E-01
  4.402082E-01
  4.334931E-01
  4.343046E-01
  4.370826E-01
  4.406848E-01
  4.413399E-01
  4.435828E-01
  4.448066E-01
  4.459654E-01
  4.429485E-01
  4.406677E-01
  4.393030E-01
  4.423128E-01
  4.443009E-01
  4.456162E-01
  4.431807E-01
  4.417104E-01
  4.399619E-01
  4.411946E-01
  4.415766E-01
  4.425892E-01
  4.403519E-01
  4.382300E-01
  4.351608E-01
  4.358011E-01
  4.371037E-01
  4.399585E-01
  4.398320E-01
  4.399748E-01
  4.386031E-01
  4.387616E-01
  4.371313E-01
  4.373453E-01
  4.378973E-01
  4.411186E-01
  4.410111E-01
  4.386268E-01
  4.335204E-01
  4.327199E-01
  4.341261E-01
  4.376981E-01
  4.382909E-01
  4.402030E-01
  4.425399E-01
  4.464135E-01
  4.447985E-01
  4.405538E-01
  4.360525E-01
  4.384497E-01
  4.434926E-01
  4.498167E-01
  4.516580E-01
  4.510679E-01
  4.453249E-01
  4.394763E-01
  4.339564E-01
  4.331140E-01
  4.325037E-01
  4.335473E-01
  4.322839E-01
  4.422852E-01
  4.461648E-01
  4.498708E-01
  4.418618E-01
  4.377030E-01
  4.315619E-01
  4.347537E-01
  4.344123E-01
  4.397766E-01
  4.399045E-01
  4.449434E-01
  4.430157E-01
  4.447042E-01
  4.402417E-01
  4.418553E-01
  4.394946E-01
  4.433031E-01
  4.412062E-01
  4.436182E-01
  4.407032E-01
  4.437638E-01
  4.409753E-01
  4.422235E-01
  4.376034E-01
  4.392208E-01
  4.360646E-01
  4.375538E-01
  4.330010E-01
  4.350082E-01
  4.340528E-01
  4.392775E-01
  4.375658E-01
  4.398417E-01
  4.373236E-01
  4.409348E-01
  4.381407E-01
  4.394740E-01
  4.362800E-01
  4.400795E-01
  4.378478E-01
  4.384907E-01
  4.331554E-01
  4.361179E-01
  4.372696E-01
  4.438203E-01
  4.414184E-01
  4.416296E-01
  4.372875E-01
  4.403954E-01
  4.378689E-01
  4.389336E-01
  4.348088E-01
  4.384550E-01
  4.385954E-01
  4.442804E-01
  4.440100E-01
  4.478108E-01
  4.434647E-01
  4.418249E-01
  4.340899E-01
  4.327838E-01
  4.278649E-01
  4.308409E-01
  4.374852E-01
  4.439946E-01
  4.441223E-01
  4.473124E-01
  4.394762E-01
  4.363753E-01
  4.290251E-01
  4.315466E-01
  4.301916E-01
  4.364050E-01
  4.367303E-01
  4.431477E-01
  4.414202E-01
  4.435910E-01
  4.376795E-01
  4.389754E-01
  4.365632E-01
  4.427896E-01
  4.423632E-01
  4.463379E-01
  4.422084E-01
  4.441774E-01
  4.393825E-01
  4.401300E-01
  4.344902E-01
  4.371834E-01
  4.353238E-01
  4.391406E-01
  4.346553E-01
  4.375153E-01
  4.378134E-01
  4.460030E-01
  4.436751E-01
  4.426033E-01
  4.346230E-01
  4.365297E-01
  4.346089E-01
  4.394296E-01
  4.382024E-01
  4.435936E-01
  4.399699E-01
  4.391256E-01
  4.327001E-01
  4.387593E-01
  4.432129E-01
  4.516044E-01
  4.459367E-01
  4.420462E-01
  4.337483E-01
  4.367068E-01
  4.351473E-01
  4.383344E-01
  4.341197E-01
  4.379836E-01
  4.371476E-01
  4.421363E-01
  4.390014E-01
  4.415442E-01
  4.380079E-01
  4.414839E-01
  4.386261E-01
  4.415568E-01
  4.372618E-01
  4.396372E-01
  4.374430E-01
  4.419811E-01
  4.413156E-01
  4.426404E-01
  4.377390E-01
  4.374109E-01
  4.338977E-01
  4.352307E-01
  4.326036E-01
  4.359787E-01
  4.367949E-01
  4.414295E-01
  4.390154E-01
  4.392213E-01
  4.358783E-01
  4.391464E-01
  4.398342E-01
  4.452212E-01
  4.449038E-01
  4.470183E-01
  4.436335E-01
  4.443304E-01
  4.392314E-01
  4.361967E-01
  4.288134E-01
  4.297294E-01
  4.308984E-01
  4.370964E-01
  4.362334E-01
  4.386411E-01
  4.389614E-01
  4.448280E-01
  4.428868E-01
  4.414069E-01
  4.365569E-01
  4.401849E-01
  4.408283E-01
  4.436962E-01
  4.405093E-01
  4.418546E-01
  4.382139E-01
  4.373813E-01
  4.330883E-01
  4.378028E-01
  4.425949E-01
  4.508416E-01
  4.483644E-01
  4.446531E-01
  4.365547E-01
  4.369394E-01
  4.359121E-01
  4.387627E-01
  4.357041E-01
  4.367190E-01
  4.337986E-01
  4.355111E-01
  4.334696E-01
  4.370568E-01
  4.374854E-01
  4.424392E-01
  4.415624E-01
  4.426785E-01
  4.380177E-01
  4.387272E-01
  4.392317E-01
  4.391010E-01
  4.390352E-01
  4.414751E-01
  4.408866E-01
  4.407427E-01
  4.381871E-01
  4.376606E-01
  4.359280E-01
  4.374148E-01
  4.383647E-01
  4.410910E-01
  4.402682E-01
  4.397698E-01
  4.375887E-01
  4.392409E-01
  4.415303E-01
  4.470665E-01
  4.495046E-01
  4.503884E-01
  4.463117E-01
  4.434525E-01
  4.391616E-01
  4.364494E-01
  4.320489E-01
  4.323057E-01
  4.344971E-01
  4.392243E-01
  4.395360E-01
  4.408786E-01
  4.432884E-01
  4.492649E-01
  4.492002E-01
  4.451525E-01
  4.389179E-01
  4.394443E-01
  4.415223E-01
  4.446042E-01
  4.439977E-01
  4.447113E-01
  4.422385E-01
  4.394831E-01
  4.355341E-01
  4.380892E-01
  4.428706E-01
  4.484058E-01
  4.467462E-01
  4.430254E-01
  4.382853E-01
  4.389488E-01
  4.393180E-01
  4.399567E-01
  4.372374E-01
  4.375275E-01
  4.378154E-01
  4.396373E-01
  4.374775E-01
  4.363358E-01
  4.352829E-01
  4.390853E-01
  4.421071E-01
  4.453619E-01
  4.440055E-01
  4.426583E-01
  4.335587E-01
  4.350227E-01
  4.367717E-01
  4.402529E-01
  4.416965E-01
  4.438812E-01
  4.441358E-01
  4.443754E-01
  4.421242E-01
  4.420057E-01
  4.421235E-01
  4.432642E-01
  4.410944E-01
  4.397722E-01
  4.391458E-01
  4.422460E-01
  4.448307E-01
  4.481991E-01
  4.486008E-01
  4.479397E-01
  4.442154E-01
  4.421218E-01
  4.394811E-01
  4.377076E-01
  4.342018E-01
  4.340930E-01
  4.359707E-01
  4.400335E-01
  4.404174E-01
  4.404899E-01
  4.407908E-01
  4.443076E-01
  4.449875E-01
  4.442748E-01
  4.427375E-01
  4.454630E-01
  4.471546E-01
  4.469138E-01
  4.426525E-01
  4.403538E-01
  4.385919E-01
  4.388735E-01
  4.376427E-01
  4.381670E-01
  4.384385E-01
  4.405275E-01
  4.403293E-01
  4.403009E-01
  4.392805E-01
  4.410637E-01
  4.416953E-01
  4.418996E-01
  4.392971E-01
  4.388686E-01
  4.391267E-01
  4.414556E-01
  4.410267E-01
  4.400964E-01
  4.376256E-01
  4.378836E-01
  4.377491E-01
  4.383061E-01
  4.362622E-01
  4.351566E-01
  4.338553E-01
  4.339611E-01
  4.362364E-01
  4.412258E-01
  4.432204E-01
  4.442325E-01
  4.431499E-01
  4.435247E-01
  4.426290E-01
  4.432518E-01
  4.430815E-01
  4.441986E-01
  4.430314E-01
  4.422186E-01
  4.401232E-01
  4.402885E-01
  4.406492E-01
  4.438595E-01
  4.458255E-01
  4.465375E-01
  4.426662E-01
  4.396007E-01
  4.375643E-01
  4.388967E-01
  4.393461E-01
  4.414052E-01
  4.428039E-01
  4.446514E-01
  4.426358E-01
  4.409393E-01
  4.403775E-01
  4.438515E-01
  4.450759E-01
  4.443851E-01
  4.415730E-01
  4.423848E-01
  4.432739E-01
  4.438147E-01
  4.409642E-01
  4.394810E-01
  4.379785E-01
  4.387496E-01
  4.388378E-01
  4.403710E-01
  4.395158E-01
  4.382371E-01
  4.352114E-01
  4.354160E-01
  4.374469E-01
  4.423888E-01
  4.441818E-01
  4.435160E-01
  4.399779E-01
  4.404260E-01
  4.435497E-01
  4.484624E-01
  4.478536E-01
  4.437473E-01
  4.375081E-01
  4.357636E-01
  4.362075E-01
  4.388572E-01
  4.385479E-01
  4.372107E-01
  4.317350E-01
  4.333704E-01
  4.358578E-01
  4.393126E-01
  4.407028E-01
  4.423892E-01
  4.430842E-01
  4.439499E-01
  4.428076E-01
  4.428468E-01
  4.430498E-01
  4.439031E-01
  4.420707E-01
  4.402757E-01
  4.384825E-01
  4.389009E-01
  4.391111E-01
  4.409850E-01
  4.423502E-01
  4.433914E-01
  4.411790E-01
  4.389210E-01
  4.366938E-01
  4.367950E-01
  4.372115E-01
  4.400826E-01
  4.430230E-01
  4.455193E-01
  4.435773E-01
  4.400336E-01
  4.363129E-01
  4.361660E-01
  4.367516E-01
  4.385634E-01
  4.400884E-01
  4.433711E-01
  4.445554E-01
  4.432413E-01
  4.380734E-01
  4.339605E-01
  4.319905E-01
  4.346967E-01
  4.381110E-01
  4.407094E-01
  4.390767E-01
  4.366774E-01
  4.345375E-01
  4.362047E-01
  4.394583E-01
  4.439020E-01
  4.449008E-01
  4.434496E-01
  4.398021E-01
  4.390504E-01
  4.407663E-01
  4.450920E-01
  4.466951E-01
  4.455742E-01
  4.414762E-01
  4.391852E-01
  4.376488E-01
  4.372478E-01
  4.349614E-01
  4.332294E-01
  4.356059E-01
  4.353209E-01
  4.364700E-01
  4.396767E-01
  4.408039E-01
  4.413715E-01
  4.400588E-01
  4.397481E-01
  4.387181E-01
  4.395458E-01
  4.402946E-01
  4.422037E-01
  4.417151E-01
  4.404557E-01
  4.374001E-01
  4.364060E-01
  4.366923E-01
  4.405703E-01
  4.442733E-01
  4.467674E-01
  4.440910E-01
  4.400982E-01
  4.360452E-01
  4.357820E-01
  4.370588E-01
  4.413164E-01
  4.450729E-01
  4.478126E-01
  4.455545E-01
  4.419329E-01
  4.384123E-01
  4.386689E-01
  4.387577E-01
  4.386970E-01
  4.370693E-01
  4.379220E-01
  4.390070E-01
  4.403084E-01
  4.384435E-01
  4.363420E-01
  4.337825E-01
  4.346095E-01
  4.370746E-01
  4.412382E-01
  4.420262E-01
  4.408759E-01
  4.381485E-01
  4.388971E-01
  4.413440E-01
  4.448700E-01
  4.441889E-01
  4.411910E-01
  4.368931E-01
  4.368483E-01
  4.395277E-01
  4.442890E-01
  4.455121E-01
  4.444919E-01
  4.416306E-01
  4.417381E-01
  4.424834E-01
  4.436429E-01
  4.415747E-01
  4.389833E-01
  4.338904E-01
  4.366450E-01
  4.368661E-01
  4.393806E-01
  4.394900E-01
  4.421014E-01
  4.411120E-01
  4.408715E-01
  4.374526E-01
  4.382111E-01
  4.385969E-01
  4.413683E-01
  4.392720E-01
  4.382246E-01
  4.358058E-01
  4.382658E-01
  4.396411E-01
  4.437474E-01
  4.447838E-01
  4.470127E-01
  4.445414E-01
  4.426485E-01
  4.373857E-01
  4.353177E-01
  4.329458E-01
  4.362262E-01
  4.392295E-01
  4.442268E-01
  4.435174E-01
  4.422148E-01
  4.378087E-01
  4.376298E-01
  4.365064E-01
  4.383210E-01
  4.378991E-01
  4.406326E-01
  4.405797E-01
  4.413548E-01
  4.376672E-01
  4.359647E-01
  4.331332E-01
  4.352439E-01
  4.363223E-01
  4.394275E-01
  4.387601E-01
  4.404004E-01
  4.402666E-01
  4.432196E-01
  4.431320E-01
  4.438779E-01
  4.400138E-01
  4.378884E-01
  4.342707E-01
  4.349306E-01
  4.345811E-01
  4.379755E-01
  4.395772E-01
  4.435175E-01
  4.440272E-01
  4.458870E-01
  4.433925E-01
  4.413342E-01
  4.360572E-01
  4.349816E-01
  4.372616E-01
  4.389968E-01
  4.381002E-01
  4.409415E-01
  4.409868E-01
  4.427396E-01
  4.396452E-01
  4.385428E-01
  4.351472E-01
  4.364470E-01
  4.364127E-01
  4.395971E-01
  4.384759E-01
  4.387151E-01
  4.360059E-01
  4.379363E-01
  4.386258E-01
  4.428806E-01
  4.439128E-01
  4.469021E-01
  4.449171E-01
  4.437482E-01
  4.387681E-01
  4.375372E-01
  4.349038E-01
  4.368541E-01
  4.372968E-01
  4.411413E-01
  4.409465E-01
  4.423058E-01
  4.407768E-01
  4.432844E-01
  4.424415E-01
  4.422831E-01
  4.377371E-01
  4.373542E-01
  4.361552E-01
  4.388452E-01
  4.385107E-01
  4.408597E-01
  4.395811E-01
  4.402872E-01
  4.377504E-01
  4.389573E-01
  4.382567E-01
  4.408740E-01
  4.401151E-01
  4.416904E-01
  4.397206E-01
  4.397982E-01
  4.358836E-01
  4.350970E-01
  4.333150E-01
  4.366825E-01
  4.377829E-01
  4.409800E-01
  4.401731E-01
  4.420996E-01
  4.414576E-01
  4.437187E-01
  4.418224E-01
  4.414770E-01
  4.380337E-01
  4.386586E-01
  4.376127E-01
  4.395981E-01
  4.386556E-01
  4.387533E-01
  4.393371E-01
  4.416338E-01
  4.418025E-01
  4.409311E-01
  4.380884E-01
  4.371986E-01
  4.369388E-01
  4.378826E-01
  4.367026E-01
  4.363360E-01
  4.368699E-01
  4.401441E-01
  4.415745E-01
  4.416612E-01
  4.402313E-01
  4.416395E-01
  4.433460E-01
  4.445821E-01
  4.419239E-01
  4.385485E-01
  4.344073E-01
  4.326356E-01
  4.320187E-01
  4.346534E-01
  4.369979E-01
  4.387931E-01
  4.379383E-01
  4.382494E-01
  4.385014E-01
  4.397538E-01
  4.396097E-01
  4.403748E-01
  4.396786E-01
  4.390436E-01
  4.375110E-01
  4.385065E-01
  4.397595E-01
  4.412486E-01
  4.395401E-01
  4.375779E-01
  4.359132E-01
  4.375622E-01
  4.387780E-01
  4.393209E-01
  4.370457E-01
  4.352320E-01
  4.332603E-01
  4.342366E-01
  4.363492E-01
  4.398225E-01
  4.404918E-01
  4.402948E-01
  4.391940E-01
  4.402911E-01
  4.405469E-01
  4.401374E-01
  4.366595E-01
  4.338591E-01
  4.323576E-01
  4.349508E-01
  4.454081E-01
  4.422190E-01
  4.400117E-01
  4.378435E-01
  4.395374E-01
  4.394709E-01
  4.404275E-01
  4.389867E-01
  4.392878E-01
  4.374184E-01
  4.374438E-01
  4.361113E-01
  4.372260E-01
  4.369785E-01
  4.396106E-01
  4.409681E-01
  4.429873E-01
  4.410391E-01
  4.410863E-01
  4.415609E-01
  4.449937E-01
  4.444372E-01
  4.430352E-01
  4.389803E-01
  4.373427E-01
  4.341521E-01
  4.338011E-01
  4.337187E-01
  4.368427E-01
  4.370750E-01
  4.379942E-01
  4.377503E-01
  4.404198E-01
  4.402466E-01
  4.402242E-01
  4.378792E-01
  4.379499E-01
  4.366100E-01
  4.382344E-01
  4.394794E-01
  4.425096E-01
  4.413468E-01
  4.402749E-01
  4.381369E-01
  4.398695E-01
  4.398134E-01
  4.394957E-01
  4.355232E-01
  4.341318E-01
  4.328565E-01
  4.347920E-01
  4.356891E-01
  4.399238E-01
  4.432296E-01
  4.467883E-01
  4.446132E-01
  4.414897E-01
  4.364585E-01
  4.349022E-01
  4.327235E-01
  4.334880E-01
  4.343883E-01
  4.395421E-01
  4.430173E-01
  4.482730E-01
  4.447402E-01
  4.411022E-01
  4.365400E-01
  4.373559E-01
  4.377174E-01
  4.406284E-01
  4.403424E-01
  4.414011E-01
  4.393742E-01
  4.393587E-01
  4.365341E-01
  4.359906E-01
  4.348394E-01
  4.394964E-01
  4.435687E-01
  4.473649E-01
  4.441294E-01
  4.419527E-01
  4.403605E-01
  4.438351E-01
  4.436072E-01
  4.422271E-01
  4.367174E-01
  4.343037E-01
  4.309931E-01
  4.319386E-01
  4.329387E-01
  4.369264E-01
  4.358581E-01
  4.344520E-01
  4.319751E-01
  4.357540E-01
  4.392690E-01
  4.440114E-01
  4.436507E-01
  4.429962E-01
  4.384628E-01
  4.369694E-01
  4.353053E-01
  4.375514E-01
  4.372456E-01
  4.386529E-01
  4.381321E-01
  4.409823E-01
  4.408423E-01
  4.404106E-01
  4.356206E-01
  4.343127E-01
  4.335447E-01
  4.370085E-01
  4.385311E-01
  4.425519E-01
  4.436045E-01
  4.445950E-01
  4.401963E-01
  4.373622E-01
  4.336589E-01
  4.336208E-01
  4.311930E-01
  4.315744E-01
  4.323267E-01
  4.390283E-01
  4.442209E-01
  4.527430E-01
  4.475746E-01
  4.423678E-01
  4.388070E-01
  4.382493E-01
  4.370334E-01
  4.365495E-01
  4.363067E-01
  4.381192E-01
  4.387862E-01
  4.388821E-01
  4.369791E-01
  4.357342E-01
  4.347560E-01
  4.369840E-01
  4.402734E-01
  4.436291E-01
  4.432760E-01
  4.421332E-01
  4.409948E-01
  4.417293E-01
  4.407603E-01
  4.391641E-01
  4.366291E-01
  4.358184E-01
  4.347842E-01
  4.355150E-01
  4.369422E-01
  4.392853E-01
  4.384223E-01
  4.369561E-01
  4.369931E-01
  4.413112E-01
  4.447184E-01
  4.454828E-01
  4.423298E-01
  4.395271E-01
  4.371535E-01
  4.374259E-01
  4.378810E-01
  4.384582E-01
  4.370063E-01
  4.374839E-01
  4.402139E-01
  4.448402E-01
  4.449801E-01
  4.407610E-01
  4.343698E-01
  4.325434E-01
  4.344508E-01
  4.384777E-01
  4.401440E-01
  4.416810E-01
  4.426134E-01
  4.434413E-01
  4.406148E-01
  4.368264E-01
  4.332418E-01
  4.326867E-01
  4.326184E-01
  4.347701E-01
  4.389313E-01
  4.464883E-01
  4.518913E-01
  4.475069E-01
  4.454483E-01
  4.418116E-01
  4.385445E-01
  4.374197E-01
  4.368741E-01
  4.367817E-01
  4.363839E-01
  4.368718E-01
  4.375294E-01
  4.382570E-01
  4.370043E-01
  4.345512E-01
  4.324221E-01
  4.337671E-01
  4.372251E-01
  4.402265E-01
  4.396329E-01
  4.372886E-01
  4.354438E-01
  4.364247E-01
  4.382267E-01
  4.393448E-01
  4.382136E-01
  4.364850E-01
  4.348074E-01
  4.353468E-01
  4.376869E-01
  4.403587E-01
  4.396661E-01
  4.372394E-01
  4.366345E-01
  4.405226E-01
  4.449628E-01
  4.466365E-01
  4.442395E-01
  4.408694E-01
  4.379018E-01
  4.367196E-01
  4.360623E-01
  4.360261E-01
  4.359718E-01
  4.375354E-01
  4.401801E-01
  4.429706E-01
  4.425023E-01
  4.389225E-01
  4.341563E-01
  4.324231E-01
  4.337519E-01
  4.367924E-01
  4.387102E-01
  4.399950E-01
  4.400177E-01
  4.389483E-01
  4.364057E-01
  4.354898E-01
  4.369769E-01
  4.398858E-01
  4.405438E-01
  4.396010E-01
  4.391069E-01
  4.418280E-01
  4.455114E-01
  4.451320E-01
  4.415748E-01
  4.411858E-01
  4.386881E-01
  4.396942E-01
  4.367880E-01
  4.363394E-01
  4.331966E-01
  4.343198E-01
  4.332506E-01
  4.357591E-01
  4.351684E-01
  4.372309E-01
  4.354482E-01
  4.364508E-01
  4.344559E-01
  4.357576E-01
  4.337311E-01
  4.345084E-01
  4.324977E-01
  4.350913E-01
  4.364458E-01
  4.415376E-01
  4.420047E-01
  4.432207E-01
  4.400628E-01
  4.410895E-01
  4.408258E-01
  4.436789E-01
  4.414182E-01
  4.417817E-01
  4.414609E-01
  4.462359E-01
  4.455972E-01
  4.436137E-01
  4.368045E-01
  4.355955E-01
  4.346983E-01
  4.384898E-01
  4.385426E-01
  4.400985E-01
  4.376038E-01
  4.394220E-01
  4.401374E-01
  4.436994E-01
  4.406916E-01
  4.376840E-01
  4.318918E-01
  4.322878E-01
  4.322281E-01
  4.357918E-01
  4.355538E-01
  4.384009E-01
  4.386516E-01
  4.416735E-01
  4.403207E-01
  4.419824E-01
  4.420054E-01
  4.461449E-01
  4.458212E-01
  4.465595E-01
  4.436851E-01
  4.451692E-01
  4.441285E-01
  4.384883E-01
  4.369571E-01
  4.403864E-01
  4.370189E-01
  4.397252E-01
  4.371140E-01
  4.402781E-01
  4.359895E-01
  4.363707E-01
  4.316566E-01
  4.352084E-01
  4.343873E-01
  4.394338E-01
  4.380070E-01
  4.420082E-01
  4.387240E-01
  4.394818E-01
  4.331473E-01
  4.332358E-01
  4.295836E-01
  4.350977E-01
  4.371497E-01
  4.444768E-01
  4.423125E-01
  4.430677E-01
  4.378812E-01
  4.411831E-01
  4.405975E-01
  4.450209E-01
  4.404025E-01
  4.405624E-01
  4.371484E-01
  4.422819E-01
  4.406283E-01
  4.420869E-01
  4.365776E-01
  4.384488E-01
  4.356207E-01
  4.384156E-01
  4.348439E-01
  4.380432E-01
  4.366482E-01
  4.415629E-01
  4.394980E-01
  4.417576E-01
  4.368906E-01
  4.380263E-01
  4.341080E-01
  4.367655E-01