# vtk DataFile Version 2.0
title
ASCII
DATASET STRUCTURED_GRID
DIMENSIONS   64   64    1
POINTS   4096  float
  0.000000E+00  0.000000E+00  0.000000E+00
  0.000000E+00  3.906250E-01  0.000000E+00
  0.000000E+00  7.812500E-01  0.000000E+00
  0.000000E+00  1.171875E+00  0.000000E+00
  0.000000E+00  1.562500E+00  0.000000E+00
  0.000000E+00  1.953125E+00  0.000000E+00
  0.000000E+00  2.343750E+00  0.000000E+00
  0.000000E+00  2.734375E+00  0.000000E+00
  0.000000E+00  3.125000E+00  0.000000E+00
  0.000000E+00  3.515625E+00  0.000000E+00
  0.000000E+00  3.906250E+00  0.000000E+00
  0.000000E+00  4.296875E+00  0.000000E+00
  0.000000E+00  4.687500E+00  0.000000E+00
  0.000000E+00  5.078125E+00  0.000000E+00
  0.000000E+00  5.468750E+00  0.000000E+00
  0.000000E+00  5.859375E+00  0.000000E+00
  0.000000E+00  6.250000E+00  0.000000E+00
  0.000000E+00  6.640625E+00  0.000000E+00
  0.000000E+00  7.031250E+00  0.000000E+00
  0.000000E+00  7.421875E+00  0.000000E+00
  0.000000E+00  7.812500E+00  0.000000E+00
  0.000000E+00  8.203125E+00  0.000000E+00
  0.000000E+00  8.593750E+00  0.000000E+00
  0.000000E+00  8.984375E+00  0.000000E+00
  0.000000E+00  9.375000E+00  0.000000E+00
  0.000000E+00  9.765625E+00  0.000000E+00
  0.000000E+00  1.015625E+01  0.000000E+00
  0.000000E+00  1.054688E+01  0.000000E+00
  0.000000E+00  1.093750E+01  0.000000E+00
  0.000000E+00  1.132812E+01  0.000000E+00
  0.000000E+00  1.171875E+01  0.000000E+00
  0.000000E+00  1.210938E+01  0.000000E+00
  0.000000E+00  1.250000E+01  0.000000E+00
  0.000000E+00  1.289062E+01  0.000000E+00
  0.000000E+00  1.328125E+01  0.000000E+00
  0.000000E+00  1.367188E+01  0.000000E+00
  0.000000E+00  1.406250E+01  0.000000E+00
  0.000000E+00  1.445312E+01  0.000000E+00
  0.000000E+00  1.484375E+01  0.000000E+00
  0.000000E+00  1.523438E+01  0.000000E+00
  0.000000E+00  1.562500E+01  0.000000E+00
  0.000000E+00  1.601562E+01  0.000000E+00
  0.000000E+00  1.640625E+01  0.000000E+00
  0.000000E+00  1.679688E+01  0.000000E+00
  0.000000E+00  1.718750E+01  0.000000E+00
  0.000000E+00  1.757812E+01  0.000000E+00
  0.000000E+00  1.796875E+01  0.000000E+00
  0.000000E+00  1.835938E+01  0.000000E+00
  0.000000E+00  1.875000E+01  0.000000E+00
  0.000000E+00  1.914062E+01  0.000000E+00
  0.000000E+00  1.953125E+01  0.000000E+00
  0.000000E+00  1.992188E+01  0.000000E+00
  0.000000E+00  2.031250E+01  0.000000E+00
  0.000000E+00  2.070312E+01  0.000000E+00
  0.000000E+00  2.109375E+01  0.000000E+00
  0.000000E+00  2.148438E+01  0.000000E+00
  0.000000E+00  2.187500E+01  0.000000E+00
  0.000000E+00  2.226562E+01  0.000000E+00
  0.000000E+00  2.265625E+01  0.000000E+00
  0.000000E+00  2.304688E+01  0.000000E+00
  0.000000E+00  2.343750E+01  0.000000E+00
  0.000000E+00  2.382812E+01  0.000000E+00
  0.000000E+00  2.421875E+01  0.000000E+00
  0.000000E+00  2.460938E+01  0.000000E+00
  3.906250E-01  0.000000E+00  0.000000E+00
  3.906250E-01  3.906250E-01  0.000000E+00
  3.906250E-01  7.812500E-01  0.000000E+00
  3.906250E-01  1.171875E+00  0.000000E+00
  3.906250E-01  1.562500E+00  0.000000E+00
  3.906250E-01  1.953125E+00  0.000000E+00
  3.906250E-01  2.343750E+00  0.000000E+00
  3.906250E-01  2.734375E+00  0.000000E+00
  3.906250E-01  3.125000E+00  0.000000E+00
  3.906250E-01  3.515625E+00  0.000000E+00
  3.906250E-01  3.906250E+00  0.000000E+00
  3.906250E-01  4.296875E+00  0.000000E+00
  3.906250E-01  4.687500E+00  0.000000E+00
  3.906250E-01  5.078125E+00  0.000000E+00
  3.906250E-01  5.468750E+00  0.000000E+00
  3.906250E-01  5.859375E+00  0.000000E+00
  3.906250E-01  6.250000E+00  0.000000E+00
  3.906250E-01  6.640625E+00  0.000000E+00
  3.906250E-01  7.031250E+00  0.000000E+00
  3.906250E-01  7.421875E+00  0.000000E+00
  3.906250E-01  7.812500E+00  0.000000E+00
  3.906250E-01  8.203125E+00  0.000000E+00
  3.906250E-01  8.593750E+00  0.000000E+00
  3.906250E-01  8.984375E+00  0.000000E+00
  3.906250E-01  9.375000E+00  0.000000E+00
  3.906250E-01  9.765625E+00  0.000000E+00
  3.906250E-01  1.015625E+01  0.000000E+00
  3.906250E-01  1.054688E+01  0.000000E+00
  3.906250E-01  1.093750E+01  0.000000E+00
  3.906250E-01  1.132812E+01  0.000000E+00
  3.906250E-01  1.171875E+01  0.000000E+00
  3.906250E-01  1.210938E+01  0.000000E+00
  3.906250E-01  1.250000E+01  0.000000E+00
  3.906250E-01  1.289062E+01  0.000000E+00
  3.906250E-01  1.328125E+01  0.000000E+00
  3.906250E-01  1.367188E+01  0.000000E+00
  3.906250E-01  1.406250E+01  0.000000E+00
  3.906250E-01  1.445312E+01  0.000000E+00
  3.906250E-01  1.484375E+01  0.000000E+00
  3.906250E-01  1.523438E+01  0.000000E+00
  3.906250E-01  1.562500E+01  0.000000E+00
  3.906250E-01  1.601562E+01  0.000000E+00
  3.906250E-01  1.640625E+01  0.000000E+00
  3.906250E-01  1.679688E+01  0.000000E+00
  3.906250E-01  1.718750E+01  0.000000E+00
  3.906250E-01  1.757812E+01  0.000000E+00
  3.906250E-01  1.796875E+01  0.000000E+00
  3.906250E-01  1.835938E+01  0.000000E+00
  3.906250E-01  1.875000E+01  0.000000E+00
  3.906250E-01  1.914062E+01  0.000000E+00
  3.906250E-01  1.953125E+01  0.000000E+00
  3.906250E-01  1.992188E+01  0.000000E+00
  3.906250E-01  2.031250E+01  0.000000E+00
  3.906250E-01  2.070312E+01  0.000000E+00
  3.906250E-01  2.109375E+01  0.000000E+00
  3.906250E-01  2.148438E+01  0.000000E+00
  3.906250E-01  2.187500E+01  0.000000E+00
  3.906250E-01  2.226562E+01  0.000000E+00
  3.906250E-01  2.265625E+01  0.000000E+00
  3.906250E-01  2.304688E+01  0.000000E+00
  3.906250E-01  2.343750E+01  0.000000E+00
  3.906250E-01  2.382812E+01  0.000000E+00
  3.906250E-01  2.421875E+01  0.000000E+00
  3.906250E-01  2.460938E+01  0.000000E+00
  7.812500E-01  0.000000E+00  0.000000E+00
  7.812500E-01  3.906250E-01  0.000000E+00
  7.812500E-01  7.812500E-01  0.000000E+00
  7.812500E-01  1.171875E+00  0.000000E+00
  7.812500E-01  1.562500E+00  0.000000E+00
  7.812500E-01  1.953125E+00  0.000000E+00
  7.812500E-01  2.343750E+00  0.000000E+00
  7.812500E-01  2.734375E+00  0.000000E+00
  7.812500E-01  3.125000E+00  0.000000E+00
  7.812500E-01  3.515625E+00  0.000000E+00
  7.812500E-01  3.906250E+00  0.000000E+00
  7.812500E-01  4.296875E+00  0.000000E+00
  7.812500E-01  4.687500E+00  0.000000E+00
  7.812500E-01  5.078125E+00  0.000000E+00
  7.812500E-01  5.468750E+00  0.000000E+00
  7.812500E-01  5.859375E+00  0.000000E+00
  7.812500E-01  6.250000E+00  0.000000E+00
  7.812500E-01  6.640625E+00  0.000000E+00
  7.812500E-01  7.031250E+00  0.000000E+00
  7.812500E-01  7.421875E+00  0.000000E+00
  7.812500E-01  7.812500E+00  0.000000E+00
  7.812500E-01  8.203125E+00  0.000000E+00
  7.812500E-01  8.593750E+00  0.000000E+00
  7.812500E-01  8.984375E+00  0.000000E+00
  7.812500E-01  9.375000E+00  0.000000E+00
  7.812500E-01  9.765625E+00  0.000000E+00
  7.812500E-01  1.015625E+01  0.000000E+00
  7.812500E-01  1.054688E+01  0.000000E+00
  7.812500E-01  1.093750E+01  0.000000E+00
  7.812500E-01  1.132812E+01  0.000000E+00
  7.812500E-01  1.171875E+01  0.000000E+00
  7.812500E-01  1.210938E+01  0.000000E+00
  7.812500E-01  1.250000E+01  0.000000E+00
  7.812500E-01  1.289062E+01  0.000000E+00
  7.812500E-01  1.328125E+01  0.000000E+00
  7.812500E-01  1.367188E+01  0.000000E+00
  7.812500E-01  1.406250E+01  0.000000E+00
  7.812500E-01  1.445312E+01  0.000000E+00
  7.812500E-01  1.484375E+01  0.000000E+00
  7.812500E-01  1.523438E+01  0.000000E+00
  7.812500E-01  1.562500E+01  0.000000E+00
  7.812500E-01  1.601562E+01  0.000000E+00
  7.812500E-01  1.640625E+01  0.000000E+00
  7.812500E-01  1.679688E+01  0.000000E+00
  7.812500E-01  1.718750E+01  0.000000E+00
  7.812500E-01  1.757812E+01  0.000000E+00
  7.812500E-01  1.796875E+01  0.000000E+00
  7.812500E-01  1.835938E+01  0.000000E+00
  7.812500E-01  1.875000E+01  0.000000E+00
  7.812500E-01  1.914062E+01  0.000000E+00
  7.812500E-01  1.953125E+01  0.000000E+00
  7.812500E-01  1.992188E+01  0.000000E+00
  7.812500E-01  2.031250E+01  0.000000E+00
  7.812500E-01  2.070312E+01  0.000000E+00
  7.812500E-01  2.109375E+01  0.000000E+00
  7.812500E-01  2.148438E+01  0.000000E+00
  7.812500E-01  2.187500E+01  0.000000E+00
  7.812500E-01  2.226562E+01  0.000000E+00
  7.812500E-01  2.265625E+01  0.000000E+00
  7.812500E-01  2.304688E+01  0.000000E+00
  7.812500E-01  2.343750E+01  0.000000E+00
  7.812500E-01  2.382812E+01  0.000000E+00
  7.812500E-01  2.421875E+01  0.000000E+00
  7.812500E-01  2.460938E+01  0.000000E+00
  1.171875E+00  0.000000E+00  0.000000E+00
  1.171875E+00  3.906250E-01  0.000000E+00
  1.171875E+00  7.812500E-01  0.000000E+00
  1.171875E+00  1.171875E+00  0.000000E+00
  1.171875E+00  1.562500E+00  0.000000E+00
  1.171875E+00  1.953125E+00  0.000000E+00
  1.171875E+00  2.343750E+00  0.000000E+00
  1.171875E+00  2.734375E+00  0.000000E+00
  1.171875E+00  3.125000E+00  0.000000E+00
  1.171875E+00  3.515625E+00  0.000000E+00
  1.171875E+00  3.906250E+00  0.000000E+00
  1.171875E+00  4.296875E+00  0.000000E+00
  1.171875E+00  4.687500E+00  0.000000E+00
  1.171875E+00  5.078125E+00  0.000000E+00
  1.171875E+00  5.468750E+00  0.000000E+00
  1.171875E+00  5.859375E+00  0.000000E+00
  1.171875E+00  6.250000E+00  0.000000E+00
  1.171875E+00  6.640625E+00  0.000000E+00
  1.171875E+00  7.031250E+00  0.000000E+00
  1.171875E+00  7.421875E+00  0.000000E+00
  1.171875E+00  7.812500E+00  0.000000E+00
  1.171875E+00  8.203125E+00  0.000000E+00
  1.171875E+00  8.593750E+00  0.000000E+00
  1.171875E+00  8.984375E+00  0.000000E+00
  1.171875E+00  9.375000E+00  0.000000E+00
  1.171875E+00  9.765625E+00  0.000000E+00
  1.171875E+00  1.015625E+01  0.000000E+00
  1.171875E+00  1.054688E+01  0.000000E+00
  1.171875E+00  1.093750E+01  0.000000E+00
  1.171875E+00  1.132812E+01  0.000000E+00
  1.171875E+00  1.171875E+01  0.000000E+00
  1.171875E+00  1.210938E+01  0.000000E+00
  1.171875E+00  1.250000E+01  0.000000E+00
  1.171875E+00  1.289062E+01  0.000000E+00
  1.171875E+00  1.328125E+01  0.000000E+00
  1.171875E+00  1.367188E+01  0.000000E+00
  1.171875E+00  1.406250E+01  0.000000E+00
  1.171875E+00  1.445312E+01  0.000000E+00
[...]
POINT_DATA   4096
SCALARS CON  float  1
LOOKUP_TABLE default
  4.450391E-01
  4.433369E-01
  4.488175E-01
  4.482864E-01
  4.486493E-01
  4.416261E-01
  4.416683E-01
  4.413280E-01
  4.476287E-01
  4.464030E-01
  4.464970E-01
  4.411199E-01
  4.427654E-01
  4.410716E-01
  4.436699E-01
  4.407359E-01
  4.439957E-01
  4.442052E-01
  4.487363E-01
  4.454962E-01
  4.450330E-01
  4.398294E-01
  4.407097E-01
  4.376204E-01
  4.396729E-01
  4.366239E-01
  4.384412E-01
  4.370676E-01
  4.435395E-01
  4.460467E-01
  4.497008E-01
  4.431216E-01
  4.407144E-01
  4.381528E-01
  4.447417E-01
  4.454779E-01
  4.468858E-01
  4.408733E-01
  4.403318E-01
  4.368235E-01
  4.397472E-01
  4.380955E-01
  4.402902E-01
  4.369941E-01
  4.394015E-01
  4.375841E-01
  4.402939E-01
  4.393756E-01
  4.464313E-01
  4.485731E-01
  4.501960E-01
  4.419620E-01
  4.395942E-01
  4.366830E-01
  4.418843E-01
  4.442393E-01
  4.524463E-01
  4.535021E-01
  4.546185E-01
  4.480433E-01
  4.480538E-01
  4.458294E-01
  4.484354E-01
  4.443377E-01
  4.448055E-01
  4.441115E-01
  4.518404E-01
  4.544431E-01
  4.543061E-01
  4.442704E-01
  4.400240E-01
  4.382606E-01
  4.445011E-01
  4.445060E-01
  4.449603E-01
  4.413909E-01
  4.446444E-01
  4.441020E-01
  4.448070E-01
  4.397661E-01
  4.414554E-01
  4.432034E-01
  4.500307E-01
  4.492346E-01
  4.479293E-01
  4.405059E-01
  4.389136E-01
  4.366533E-01
  4.406866E-01
  4.401500E-01
  4.420064E-01
  4.395564E-01
  4.432606E-01
  4.444504E-01
  4.480447E-01
  4.437991E-01
  4.424207E-01
  4.393521E-01
  4.429309E-01
  4.420121E-01
  4.431954E-01
  4.394831E-01
  4.409054E-01
  4.393438E-01
  4.415083E-01
  4.377670E-01
  4.368914E-01
  4.329937E-01
  4.355251E-01
  4.350255E-01
  4.385824E-01
  4.399038E-01
  4.487178E-01
  4.526938E-01
  4.537805E-01
  4.442248E-01
  4.399809E-01
  4.380787E-01
  4.452094E-01
  4.491830E-01
  4.555107E-01
  4.539585E-01
  4.523099E-01
  4.450273E-01
  4.446831E-01
  4.439747E-01
  4.477657E-01
  4.447473E-01
  4.381568E-01
  4.430878E-01
  4.524478E-01
  4.558301E-01
  4.535448E-01
  4.446903E-01
  4.407686E-01
  4.402308E-01
  4.442649E-01
  4.446496E-01
  4.452984E-01
  4.438739E-01
  4.456743E-01
  4.451960E-01
  4.454791E-01
  4.429345E-01
  4.440041E-01
  4.450577E-01
  4.485613E-01
  4.478317E-01
  4.468235E-01
  4.425296E-01
  4.409139E-01
  4.387847E-01
  4.404334E-01
  4.400735E-01
  4.406537E-01
  4.385690E-01
  4.398976E-01
  4.401695E-01
  4.414575E-01
  4.384915E-01
  4.379876E-01
  4.385059E-01
  4.436569E-01
  4.453191E-01
  4.455038E-01
  4.414435E-01
  4.403576E-01
  4.388810E-01
  4.400805E-01
  4.377987E-01
  4.357973E-01
  4.315451E-01
  4.319697E-01
  4.334201E-01
  4.387937E-01
  4.431704E-01
  4.506828E-01
  4.538685E-01
  4.528840E-01
  4.447189E-01
  4.403562E-01
  4.394121E-01
  4.445068E-01
  4.484598E-01
  4.540774E-01
  4.547319E-01
  4.523546E-01
  4.439643E-01
  4.387123E-01
  4.350341E-01
  4.358342E-01
  4.350267E-01
  4.375121E-01
  4.440062E-01
  4.515229E-01
  4.562202E-01
  4.511181E-01
  4.427963E-01
  4.362268E-01
  4.372570E-01
  4.402117E-01
  4.436114E-01
  4.441173E-01
  4.462684E-01
  4.476708E-01
  4.488537E-01
  4.458421E-01
  4.434476E-01
  4.421824E-01
  4.451878E-01
  4.471727E-01
  4.483169E-01
  4.459083E-01
  4.444549E-01
  4.428649E-01
  4.441271E-01
  4.446081E-01
  4.455205E-01
  4.432238E-01
  4.409447E-01
  4.379050E-01
  4.385259E-01
  4.399361E-01
  4.427561E-01
  4.426945E-01
  4.428275E-01
  4.415805E-01
  4.416990E-01
  4.400508E-01
  4.400892E-01
  4.406719E-01
  4.439984E-01
  4.441322E-01
  4.416637E-01
  4.364443E-01
  4.355064E-01
  4.369977E-01
  4.405370E-01
  4.411510E-01
  4.429622E-01
  4.454157E-01
  4.493666E-01
  4.477579E-01
  4.431921E-01
  4.386599E-01
  4.412506E-01
  4.465509E-01
  4.527146E-01
  4.544934E-01
  4.539362E-01
  4.483064E-01
  4.422536E-01
  4.366878E-01
  4.359272E-01
  4.355368E-01
  4.364366E-01
  4.349520E-01
  4.450509E-01
  4.490703E-01
  4.527866E-01
  4.445698E-01
  4.403264E-01
  4.343650E-01
  4.377872E-01
  4.374054E-01
  4.426531E-01
  4.427622E-01
  4.478626E-01
  4.458999E-01
  4.475549E-01
  4.430874E-01
  4.447479E-01
  4.424094E-01
  4.462331E-01
  4.440199E-01
  4.462696E-01
  4.433118E-01
  4.465764E-01
  4.439839E-01
  4.452849E-01
  4.406040E-01
  4.422215E-01
  4.390477E-01
  4.404689E-01
  4.357541E-01
  4.376827E-01
  4.368148E-01
  4.422434E-01
  4.405464E-01
  4.427028E-01
  4.401507E-01
  4.438795E-01
  4.410283E-01
  4.421504E-01
  4.388760E-01
  4.429103E-01
  4.408791E-01
  4.414834E-01
  4.359839E-01
  4.389536E-01
  4.402071E-01
  4.468108E-01
  4.442426E-01
  4.442065E-01
  4.397678E-01
  4.430801E-01
  4.407109E-01
  4.417093E-01
  4.375127E-01
  4.413423E-01
  4.416017E-01
  4.471988E-01
  4.468453E-01
  4.507536E-01
  4.464071E-01
  4.446332E-01
  4.368325E-01
  4.356246E-01
  4.307070E-01
  4.335875E-01
  4.402631E-01
  4.469100E-01
  4.470301E-01
  4.502260E-01
  4.422279E-01
  4.391246E-01
  4.317993E-01
  4.344441E-01
  4.330221E-01
  4.392428E-01
  4.395115E-01
  4.459921E-01
  4.442425E-01
  4.464816E-01
  4.404946E-01
  4.417839E-01
  4.392997E-01
  4.455950E-01
  4.451144E-01
  4.490698E-01
  4.448602E-01
  4.469781E-01
  4.422537E-01
  4.430043E-01
  4.371664E-01
  4.399206E-01
  4.382516E-01
  4.422753E-01
  4.375361E-01
  4.401357E-01
  4.404432E-01
  4.490154E-01
  4.466900E-01
  4.453522E-01
  4.371731E-01
  4.393636E-01
  4.375601E-01
  4.422027E-01
  4.407064E-01
  4.463414E-01
  4.429073E-01
  4.419181E-01
  4.351556E-01
  4.414113E-01
  4.462113E-01
  4.547668E-01
  4.487683E-01
  4.445434E-01
  4.360842E-01
  4.393823E-01
  4.381311E-01
  4.413759E-01
  4.369181E-01
  4.408081E-01
  4.399928E-01
  4.449585E-01
  4.416713E-01
  4.442928E-01
  4.407828E-01
  4.443403E-01
  4.414480E-01
  4.443984E-01
  4.399797E-01
  4.423883E-01
  4.404266E-01
  4.449275E-01
  4.441770E-01
  4.453409E-01
  4.404336E-01
  4.401428E-01
  4.367979E-01
  4.380695E-01
  4.352987E-01
  4.385723E-01
  4.395796E-01
  4.442945E-01
  4.418522E-01
  4.419201E-01
  4.386073E-01
  4.418249E-01
  4.424917E-01
  4.478506E-01
  4.476606E-01
  4.497485E-01
  4.463717E-01
  4.471161E-01
  4.421438E-01
  4.389049E-01
  4.312735E-01
  4.321504E-01
  4.337258E-01
  4.402018E-01
  4.392381E-01
  4.412415E-01
  4.415926E-01
  4.477655E-01
  4.459087E-01
  4.439741E-01
  4.389527E-01
  4.428592E-01
  4.438458E-01
  4.465471E-01
  4.432028E-01
  4.446201E-01
  4.411584E-01
  4.401149E-01
  4.356032E-01
  4.403158E-01
  4.454486E-01
  4.539060E-01
  4.514291E-01
  4.473958E-01
  4.391480E-01
  4.396535E-01
  4.389400E-01
  4.417770E-01
  4.386194E-01
  4.395571E-01
  4.366570E-01
  4.382042E-01
  4.360989E-01
  4.396734E-01
  4.402425E-01
  4.453203E-01
  4.446378E-01
  4.456898E-01
  4.409188E-01
  4.415712E-01
  4.421873E-01
  4.418255E-01
  4.417324E-01
  4.441211E-01
  4.436911E-01
  4.435594E-01
  4.411780E-01
  4.405540E-01
  4.387704E-01
  4.401012E-01
  4.411864E-01
  4.438970E-01
  4.431206E-01
  4.424599E-01
  4.403481E-01
  4.419749E-01
  4.443813E-01
  4.498727E-01
  4.524606E-01
  4.532446E-01
  4.491302E-01
  4.462008E-01
  4.421658E-01
  4.393802E-01
  4.347727E-01
  4.347513E-01
  4.372447E-01
  4.422487E-01
  4.426006E-01
  4.435010E-01
  4.459160E-01
  4.521393E-01
  4.522793E-01
  4.477960E-01
  4.413853E-01
  4.421002E-01
  4.446195E-01
  4.475374E-01
  4.467592E-01
  4.474889E-01
  4.453383E-01
  4.423903E-01
  4.381981E-01
  4.405963E-01
  4.456589E-01
  4.513367E-01
  4.498590E-01
  4.459863E-01
  4.411819E-01
  4.417561E-01
  4.423018E-01
  4.428253E-01
  4.400534E-01
  4.402560E-01
  4.407150E-01
  4.424570E-01
  4.402738E-01
  4.389777E-01
  4.380810E-01
  4.420087E-01
  4.452390E-01
  4.483341E-01
  4.469566E-01
  4.455500E-01
  4.363287E-01
  4.377247E-01
  4.394989E-01
  4.431294E-01
  4.445643E-01
  4.467640E-01
  4.471130E-01
  4.474162E-01
  4.449764E-01
  4.447619E-01
  4.449777E-01
  4.462499E-01
  4.439376E-01
  4.425006E-01
  4.419718E-01
  4.453095E-01
  4.479077E-01
  4.512276E-01
  4.515992E-01
  4.508828E-01
  4.469430E-01
  4.448549E-01
  4.424596E-01
  4.408906E-01
  4.372164E-01
  4.368905E-01
  4.387318E-01
  4.429676E-01
  4.433366E-01
  4.432356E-01
  4.434699E-01
  4.472642E-01
  4.480796E-01
  4.471717E-01
  4.454056E-01
  4.482862E-01
  4.501287E-01
  4.497833E-01
  4.453104E-01
  4.431138E-01
  4.415731E-01
  4.419739E-01
  4.405931E-01
  4.409120E-01
  4.410291E-01
  4.432306E-01
  4.432261E-01
  4.432966E-01
  4.421588E-01
  4.438947E-01
  4.445175E-01
  4.447078E-01
  4.420069E-01
  4.416035E-01
  4.419381E-01
  4.443920E-01
  4.439649E-01
  4.429649E-01
  4.403691E-01
  4.406524E-01
  4.405342E-01
  4.410763E-01
  4.389991E-01
  4.379714E-01
  4.365604E-01
  4.366946E-01
  4.390780E-01
  4.443463E-01
  4.461537E-01
  4.469984E-01
  4.458084E-01
  4.463917E-01
  4.454669E-01
  4.461196E-01
  4.458533E-01
  4.470664E-01
  4.458128E-01
  4.450837E-01
  4.430106E-01
  4.433290E-01
  4.434947E-01
  4.466143E-01
  4.485251E-01
  4.493770E-01
  4.452932E-01
  4.421945E-01
  4.402891E-01
  4.420105E-01
  4.424138E-01
  4.443387E-01
  4.455228E-01
  4.474760E-01
  4.453856E-01
  4.436608E-01
  4.430055E-01
  4.467482E-01
  4.480618E-01
  4.473659E-01
  4.443288E-01
  4.452652E-01
  4.461686E-01
  4.466526E-01
  4.435218E-01
  4.421617E-01
  4.407980E-01
  4.417576E-01
  4.417536E-01
  4.433048E-01
  4.422400E-01
  4.408848E-01
  4.377429E-01
  4.380776E-01
  4.400925E-01
  4.452098E-01
  4.470388E-01
  4.464291E-01
  4.426513E-01
  4.430876E-01
  4.462687E-01
  4.514992E-01
  4.508967E-01
  4.467085E-01
  4.401847E-01
  4.384296E-01
  4.387662E-01
  4.414801E-01
  4.411868E-01
  4.400386E-01
  4.345752E-01
  4.361789E-01
  4.387915E-01
  4.422841E-01
  4.434691E-01
  4.449159E-01
  4.456859E-01
  4.467224E-01
  4.455980E-01
  4.455483E-01
  4.457953E-01
  4.467037E-01
  4.448532E-01
  4.430306E-01
  4.413318E-01
  4.417217E-01
  4.416847E-01
  4.433389E-01
  4.448382E-01
  4.460933E-01
  4.438983E-01
  4.415527E-01
  4.394150E-01
  4.396424E-01
  4.400939E-01
  4.429007E-01
  4.458095E-01
  4.482777E-01
  4.463265E-01
  4.427228E-01
  4.389862E-01
  4.388927E-01
  4.395571E-01
  4.413156E-01
  4.427979E-01
  4.461238E-01
  4.473827E-01
  4.460398E-01
  4.408448E-01
  4.366760E-01
  4.346622E-01
  4.374301E-01
  4.410807E-01
  4.437932E-01
  4.420343E-01
  4.393885E-01
  4.371093E-01
  4.387282E-01
  4.420736E-01
  4.466778E-01
  4.478155E-01
  4.463438E-01
  4.426171E-01
  4.417920E-01
  4.435609E-01
  4.480243E-01
  4.497351E-01
  4.484776E-01
  4.441559E-01
  4.417842E-01
  4.403818E-01
  4.400975E-01
  4.378736E-01
  4.361238E-01
  4.385065E-01
  4.380767E-01
  4.392888E-01
  4.424256E-01
  4.435420E-01
  4.439856E-01
  4.428307E-01
  4.425699E-01
  4.416166E-01
  4.422934E-01
  4.430524E-01
  4.449085E-01
  4.445478E-01
  4.432523E-01
  4.402635E-01
  4.391508E-01
  4.393980E-01
  4.431557E-01
  4.470722E-01
  4.496858E-01
  4.470767E-01
  4.428992E-01
  4.388860E-01
  4.385526E-01
  4.398291E-01
  4.439932E-01
  4.479352E-01
  4.507206E-01
  4.484920E-01
  4.446480E-01
  4.410959E-01
  4.413076E-01
  4.415256E-01
  4.413699E-01
  4.397568E-01
  4.405939E-01
  4.418832E-01
  4.431979E-01
  4.414096E-01
  4.391679E-01
  4.365075E-01
  4.371512E-01
  4.398437E-01
  4.442414E-01
  4.452055E-01
  4.438239E-01
  4.409623E-01
  4.415804E-01
  4.441929E-01
  4.477764E-01
  4.471799E-01
  4.440177E-01
  4.397060E-01
  4.395711E-01
  4.423486E-01
  4.471016E-01
  4.484082E-01
  4.472025E-01
  4.442949E-01
  4.444159E-01
  4.454522E-01
  4.466623E-01
  4.446346E-01
  4.419000E-01
  4.367751E-01
  4.395557E-01
  4.397014E-01
  4.421264E-01
  4.422452E-01
  4.449524E-01
  4.440814E-01
  4.437934E-01
  4.402154E-01
  4.409151E-01
  4.414503E-01
  4.443453E-01
  4.422034E-01
  4.410234E-01
  4.386092E-01
  4.411893E-01
  4.426868E-01
  4.468413E-01
  4.479060E-01
  4.500845E-01
  4.475101E-01
  4.455434E-01
  4.402701E-01
  4.381088E-01
  4.356249E-01
  4.389253E-01
  4.421064E-01
  4.472231E-01
  4.464846E-01
  4.450348E-01
  4.405506E-01
  4.404343E-01
  4.394227E-01
  4.412062E-01
  4.407024E-01
  4.434200E-01
  4.434207E-01
  4.442508E-01
  4.406443E-01
  4.388972E-01
  4.358785E-01
  4.378738E-01
  4.390624E-01
  4.422763E-01
  4.416348E-01
  4.433054E-01
  4.432347E-01
  4.461884E-01
  4.461154E-01
  4.468473E-01
  4.428766E-01
  4.406348E-01
  4.370609E-01
  4.377591E-01
  4.373146E-01
  4.405974E-01
  4.422383E-01
  4.462167E-01
  4.467196E-01
  4.486575E-01
  4.463585E-01
  4.443353E-01
  4.389247E-01
  4.377791E-01
  4.401009E-01
  4.419784E-01
  4.409748E-01
  4.438464E-01
  4.438819E-01
  4.457079E-01
  4.424725E-01
  4.413004E-01
  4.378103E-01
  4.392441E-01
  4.392702E-01
  4.425943E-01
  4.414089E-01
  4.415777E-01
  4.387047E-01
  4.407708E-01
  4.415824E-01
  4.459441E-01
  4.468237E-01
  4.497529E-01
  4.476280E-01
  4.464819E-01
  4.414916E-01
  4.403819E-01
  4.376839E-01
  4.396345E-01
  4.400264E-01
  4.439997E-01
  4.437757E-01
  4.451239E-01
  4.435206E-01
  4.462443E-01
  4.455254E-01
  4.453730E-01
  4.405798E-01
  4.401978E-01
  4.390017E-01
  4.417252E-01
  4.412853E-01
  4.437488E-01
  4.424804E-01
  4.431917E-01
  4.404866E-01
  4.416579E-01
  4.408820E-01
  4.436421E-01
  4.429399E-01
  4.446064E-01
  4.425762E-01
  4.426943E-01
  4.386514E-01
  4.378653E-01
  4.360856E-01
  4.395588E-01
  4.405082E-01
  4.436397E-01
  4.427918E-01
  4.448846E-01
  4.442992E-01
  4.467057E-01
  4.447446E-01
  4.442856E-01
  4.406198E-01
  4.413565E-01
  4.404366E-01
  4.425240E-01
  4.415001E-01
  4.415830E-01
  4.421599E-01
  4.444884E-01
  4.446058E-01
  4.437077E-01
  4.407868E-01
  4.399274E-01
  4.397458E-01
  4.408209E-01
  4.395825E-01
  4.390836E-01
  4.395041E-01
  4.428581E-01
  4.442943E-01
  4.442775E-01
  4.426773E-01
  4.441362E-01
  4.459725E-01
  4.473432E-01
  4.447071E-01
  4.414509E-01
  4.373965E-01
  4.355868E-01
  4.347189E-01
  4.372775E-01
  4.397297E-01
  4.416658E-01
  4.407906E-01
  4.412047E-01
  4.415345E-01
  4.426925E-01
  4.423132E-01
  4.431017E-01
  4.424814E-01
  4.418302E-01
  4.401999E-01
  4.413057E-01
  4.427286E-01
  4.443780E-01
  4.425673E-01
  4.403369E-01
  4.384405E-01
  4.402229E-01
  4.416043E-01
  4.421627E-01
  4.397748E-01
  4.379668E-01
  4.359499E-01
  4.369584E-01
  4.391933E-01
  4.428343E-01
  4.434175E-01
  4.430912E-01
  4.419487E-01
  4.431817E-01
  4.435104E-01
  4.431475E-01
  4.395692E-01
  4.366127E-01
  4.349382E-01
  4.376132E-01
  4.482534E-01
  4.449086E-01
  4.426703E-01
  4.405119E-01
  4.423576E-01
  4.422763E-01
  4.432815E-01
  4.418648E-01
  4.422714E-01
  4.402474E-01
  4.401500E-01
  4.387767E-01
  4.400689E-01
  4.397993E-01
  4.424280E-01
  4.437665E-01
  4.458056E-01
  4.435710E-01
  4.434773E-01
  4.440855E-01
  4.479088E-01
  4.473893E-01
  4.459135E-01
  4.418660E-01
  4.404752E-01
  4.371805E-01
  4.365645E-01
  4.363338E-01
  4.397194E-01
  4.400089E-01
  4.408205E-01
  4.404527E-01
  4.432443E-01
  4.429585E-01
  4.428255E-01
  4.405242E-01
  4.408640E-01
  4.394361E-01
  4.409138E-01
  4.421676E-01
  4.454991E-01
  4.443793E-01
  4.432022E-01
  4.408398E-01
  4.425997E-01
  4.426098E-01
  4.423890E-01
  4.382786E-01
  4.368793E-01
  4.356247E-01
  4.376289E-01
  4.383974E-01
  4.426834E-01
  4.461080E-01
  4.498536E-01
  4.475930E-01
  4.443886E-01
  4.392645E-01
  4.378148E-01
  4.356168E-01
  4.363373E-01
  4.370829E-01
  4.422936E-01
  4.458092E-01
  4.512389E-01
  4.474579E-01
  4.437575E-01
  4.391812E-01
  4.401644E-01
  4.405210E-01
  4.435270E-01
  4.432534E-01
  4.443673E-01
  4.421530E-01
  4.421198E-01
  4.393144E-01
  4.388887E-01
  4.376446E-01
  4.424272E-01
  4.466555E-01
  4.505625E-01
  4.469960E-01
  4.446157E-01
  4.430795E-01
  4.469317E-01
  4.466815E-01
  4.450631E-01
  4.393512E-01
  4.372006E-01
  4.339642E-01
  4.348089E-01
  4.357016E-01
  4.399759E-01
  4.388833E-01
  4.372060E-01
  4.344647E-01
  4.384216E-01
  4.419860E-01
  4.467775E-01
  4.464499E-01
  4.459725E-01
  4.413052E-01
  4.397231E-01
  4.379967E-01
  4.403776E-01
  4.400201E-01
  4.414080E-01
  4.407682E-01
  4.437598E-01
  4.437404E-01
  4.433870E-01
  4.383702E-01
  4.370788E-01
  4.364280E-01
  4.400216E-01
  4.413112E-01
  4.452616E-01
  4.463749E-01
  4.475848E-01
  4.431027E-01
  4.402110E-01
  4.364252E-01
  4.364783E-01
  4.339556E-01
  4.343276E-01
  4.350627E-01
  4.419713E-01
  4.472037E-01
  4.557056E-01
  4.503436E-01
  4.450428E-01
  4.416276E-01
  4.411912E-01
  4.399266E-01
  4.392402E-01
  4.389964E-01
  4.409518E-01
  4.417242E-01
  4.417687E-01
  4.398799E-01
  4.386101E-01
  4.375504E-01
  4.397442E-01
  4.432655E-01
  4.468039E-01
  4.463760E-01
  4.449940E-01
  4.438554E-01
  4.447039E-01
  4.436856E-01
  4.417739E-01
  4.391235E-01
  4.384851E-01
  4.376402E-01
  4.383268E-01
  4.398308E-01
  4.423573E-01
  4.414565E-01
  4.396142E-01
  4.395098E-01
  4.440386E-01
  4.476944E-01
  4.484416E-01
  4.452704E-01
  4.424554E-01
  4.400137E-01
  4.401687E-01
  4.406931E-01
  4.412979E-01
  4.397040E-01
  4.400055E-01
  4.428900E-01
  4.478140E-01
  4.481015E-01
  4.436777E-01
  4.370593E-01
  4.352513E-01
  4.374839E-01
  4.416718E-01
  4.431467E-01
  4.443541E-01
  4.452762E-01
  4.462413E-01
  4.434400E-01
  4.395262E-01
  4.360022E-01
  4.355862E-01
  4.355340E-01
  4.375085E-01
  4.416601E-01
  4.493920E-01
  4.549655E-01
  4.503302E-01
  4.482876E-01
  4.445386E-01
  4.414437E-01
  4.403340E-01
  4.398148E-01
  4.394679E-01
  4.390781E-01
  4.395708E-01
  4.404691E-01
  4.412488E-01
  4.400895E-01
  4.373451E-01
  4.350192E-01
  4.362013E-01
  4.399013E-01
  4.430202E-01
  4.426078E-01
  4.401478E-01
  4.382936E-01
  4.391511E-01
  4.410409E-01
  4.420164E-01
  4.409228E-01
  4.392040E-01
  4.376879E-01
  4.380619E-01
  4.404699E-01
  4.432308E-01
  4.426787E-01
  4.399908E-01
  4.394034E-01
  4.433943E-01
  4.480600E-01
  4.495592E-01
  4.470763E-01
  4.435283E-01
  4.406665E-01
  4.395266E-01
  4.390776E-01
  4.389400E-01
  4.388324E-01
  4.402367E-01
  4.430656E-01
  4.459622E-01
  4.456467E-01
  4.418226E-01
  4.369206E-01
  4.350999E-01
  4.367380E-01
  4.398427E-01
  4.417078E-01
  4.427026E-01
  4.428003E-01
  4.417050E-01
  4.391529E-01
  4.380595E-01
  4.397645E-01
  4.428006E-01
  4.435456E-01
  4.423493E-01
  4.418444E-01
  4.445444E-01
  4.484103E-01
  4.478640E-01
  4.443505E-01
  4.439264E-01
  4.415432E-01
  4.425918E-01
  4.397258E-01
  4.391441E-01
  4.360006E-01
  4.371361E-01
  4.361661E-01
  4.386303E-01
  4.380547E-01
  4.400098E-01
  4.381488E-01
  4.389795E-01
  4.369676E-01
  4.382954E-01
  4.365059E-01
  4.373809E-01
  4.353363E-01
  4.377335E-01
  4.391601E-01
  4.444054E-01
  4.450713E-01
  4.462307E-01
  4.429340E-01
  4.437086E-01
  4.434722E-01
  4.464391E-01
  4.442894E-01
  4.445305E-01
  4.442598E-01
  4.491364E-01
  4.485748E-01
  4.463567E-01
  4.394152E-01
  4.382020E-01
  4.374994E-01
  4.413693E-01
  4.415665E-01
  4.431064E-01
  4.405111E-01
  4.421305E-01
  4.429448E-01
  4.465984E-01
  4.436021E-01
  4.404172E-01
  4.346248E-01
  4.350285E-01
  4.350745E-01
  4.386063E-01
  4.383282E-01
  4.410616E-01
  4.414503E-01
  4.445561E-01
  4.431709E-01
  4.446195E-01
  4.447033E-01
  4.489808E-01
  4.487859E-01
  4.493648E-01
  4.463734E-01
  4.477758E-01
  4.468492E-01
  4.413163E-01
  4.397865E-01
  4.432309E-01
  4.397522E-01
  4.424632E-01
  4.398985E-01
  4.432688E-01
  4.389617E-01
  4.391926E-01
  4.342704E-01
  4.379323E-01
  4.372328E-01
  4.423767E-01
  4.409187E-01
  4.449910E-01
  4.415806E-01
  4.422270E-01
  4.358742E-01
  4.361278E-01
  4.323639E-01
  4.377633E-01
  4.398688E-01
  4.475117E-01
  4.454133E-01
  4.460812E-01
  4.406512E-01
  4.438742E-01
  4.433069E-01
  4.479193E-01
  4.432434E-01
  4.432726E-01
  4.397750E-01
  4.450862E-01
  4.434349E-01
  4.447931E-01
  4.391541E-01
  4.411932E-01
  4.385102E-01
  4.413799E-01
  4.376732E-01
  4.408605E-01
  4.394292E-01
  4.443542E-01
  4.421582E-01
  4.443612E-01
  4.394127E-01
  4.406800E-01
  4.368986E-01
  4.396722E-01