# vtk DataFile Version 2.0
title
ASCII
DATASET STRUCTURED_GRID
DIMENSIONS   64   64    1
POINTS   4096  float
  0.000000E+00  0.000000E+00  0.000000E+00
  0.000000E+00  3.906250E-01  0.000000E+00
  0.000000E+00  7.812500E-01  0.000000E+00
  0.000000E+00  1.171875E+00  0.000000E+00
  0.000000E+00  1.562500E+00  0.000000E+00
  0.000000E+00  1.953125E+00  0.000000E+00
  0.000000E+00  2.343750E+00  0.000000E+00
  0.000000E+00  2.734375E+00  0.000000E+00
  0.000000E+00  3.125000E+00  0.000000E+00
  0.000000E+00  3.515625E+00  0.000000E+00
  0.000000E+00  3.906250E+00  0.000000E+00
  0.000000E+00  4.296875E+00  0.000000E+00
  0.000000E+00  4.687500E+00  0.000000E+00
  0.000000E+00  5.078125E+00  0.000000E+00
  0.000000E+00  5.468750E+00  0.000000E+00
  0.000000E+00  5.859375E+00  0.000000E+00
  0.000000E+00  6.250000E+00  0.000000E+00
  0.000000E+00  6.640625E+00  0.000000E+00
  0.000000E+00  7.031250E+00  0.000000E+00
  0.000000E+00  7.421875E+00  0.000000E+00
  0.000000E+00  7.812500E+00  0.000000E+00
  0.000000E+00  8.203125E+00  0.000000E+00
  0.000000E+00  8.593750E+00  0.000000E+00
  0.000000E+00  8.984375E+00  0.000000E+00
  0.000000E+00  9.375000E+00  0.000000E+00
  0.000000E+00  9.765625E+00  0.000000E+00
  0.000000E+00  1.015625E+01  0.000000E+00
  0.000000E+00  1.054688E+01  0.000000E+00
  0.000000E+00  1.093750E+01  0.000000E+00
  0.000000E+00  1.132812E+01  0.000000E+00
  0.000000E+00  1.171875E+01  0.000000E+00
  0.000000E+00  1.210938E+01  0.000000E+00
  0.000000E+00  1.250000E+01  0.000000E+00
  0.000000E+00  1.289062E+01  0.000000E+00
  0.000000E+00  1.328125E+01  0.000000E+00
  0.000000E+00  1.367188E+01  0.000000E+00
  0.000000E+00  1.406250E+01  0.000000E+00
  0.000000E+00  1.445312E+01  0.000000E+00
  0.000000E+00  1.484375E+01  0.000000E+00
  0.000000E+00  1.523438E+01  0.000000E+00
  0.000000E+00  1.562500E+01  0.000000E+00
  0.000000E+00  1.601562E+01  0.000000E+00
  0.000000E+00  1.640625E+01  0.000000E+00
  0.000000E+00  1.679688E+01  0.000000E+00
  0.000000E+00  1.718750E+01  0.000000E+00
  0.000000E+00  1.757812E+01  0.000000E+00
  0.000000E+00  1.796875E+01  0.000000E+00
  0.000000E+00  1.835938E+01  0.000000E+00
  0.000000E+00  1.875000E+01  0.000000E+00
  0.000000E+00  1.914062E+01  0.000000E+00
  0.000000E+00  1.953125E+01  0.000000E+00
  0.000000E+00  1.992188E+01  0.000000E+00
  0.000000E+00  2.031250E+01  0.000000E+00
  0.000000E+00  2.070312E+01  0.000000E+00
  0.000000E+00  2.109375E+01  0.000000E+00
  0.000000E+00  2.148438E+01  0.000000E+00
  0.000000E+00  2.187500E+01  0.000000E+00
  0.000000E+00  2.226562E+01  0.000000E+00
  0.000000E+00  2.265625E+01  0.000000E+00
  0.000000E+00  2.304688E+01  0.000000E+00
  0.000000E+00  2.343750E+01  0.000000E+00
  0.000000E+00  2.382812E+01  0.000000E+00
  0.000000E+00  2.421875E+01  0.000000E+00
  0.000000E+00  2.460938E+01  0.000000E+00
  3.906250E-01  0.000000E+00  0.000000E+00
  3.906250E-01  3.906250E-01  0.000000E+00
  3.906250E-01  7.812500E-01  0.000000E+00
  3.906250E-01  1.171875E+00  0.000000E+00
  3.906250E-01  1.562500E+00  0.000000E+00
  3.906250E-01  1.953125E+00  0.000000E+00
  3.906250E-01  2.343750E+00  0.000000E+00
  3.906250E-01  2.734375E+00  0.000000E+00
  3.906250E-01  3.125000E+00  0.000000E+00
  3.906250E-01  3.515625E+00  0.000000E+00
  3.906250E-01  3.906250E+00  0.000000E+00
  3.906250E-01  4.296875E+00  0.000000E+00
  3.906250E-01  4.687500E+00  0.000000E+00
  3.906250E-01  5.078125E+00  0.000000E+00
  3.906250E-01  5.468750E+00  0.000000E+00
  3.906250E-01  5.859375E+00  0.000000E+00
  3.906250E-01  6.250000E+00  0.000000E+00
  3.906250E-01  6.640625E+00  0.000000E+00
  3.906250E-01  7.031250E+00  0.000000E+00
  3.906250E-01  7.421875E+00  0.000000E+00
  3.906250E-01  7.812500E+00  0.000000E+00
  3.906250E-01  8.203125E+00  0.000000E+00
  3.906250E-01  8.593750E+00  0.000000E+00
  3.906250E-01  8.984375E+00  0.000000E+00
  3.906250E-01  9.375000E+00  0.000000E+00
  3.906250E-01  9.765625E+00  0.000000E+00
  3.906250E-01  1.015625E+01  0.000000E+00
  3.906250E-01  1.054688E+01  0.000000E+00
  3.906250E-01  1.093750E+01  0.000000E+00
  3.906250E-01  1.132812E+01  0.000000E+00
  3.906250E-01  1.171875E+01  0.000000E+00
  3.906250E-01  1.210938E+01  0.000000E+00
  3.906250E-01  1.250000E+01  0.000000E+00
  3.906250E-01  1.289062E+01  0.000000E+00
  3.906250E-01  1.328125E+01  0.000000E+00
  3.906250E-01  1.367188E+01  0.000000E+00
  3.906250E-01  1.406250E+01  0.000000E+00
  3.906250E-01  1.445312E+01  0.000000E+00
  3.906250E-01  1.484375E+01  0.000000E+00
  3.906250E-01  1.523438E+01  0.000000E+00
  3.906250E-01  1.562500E+01  0.000000E+00
  3.906250E-01  1.601562E+01  0.000000E+00
  3.906250E-01  1.640625E+01  0.000000E+00
  3.906250E-01  1.679688E+01  0.000000E+00
  3.906250E-01  1.718750E+01  0.000000E+00
  3.906250E-01  1.757812E+01  0.000000E+00
  3.906250E-01  1.796875E+01  0.000000E+00
  3.906250E-01  1.835938E+01  0.000000E+00
  3.906250E-01  1.875000E+01  0.000000E+00
  3.906250E-01  1.914062E+01  0.000000E+00
  3.906250E-01  1.953125E+01  0.000000E+00
  3.906250E-01  1.992188E+01  0.000000E+00
  3.906250E-01  2.031250E+01  0.000000E+00
  3.906250E-01  2.070312E+01  0.000000E+00
  3.906250E-01  2.109375E+01  0.000000E+00
  3.906250E-01  2.148438E+01  0.000000E+00
  3.906250E-01  2.187500E+01  0.000000E+00
  3.906250E-01  2.226562E+01  0.000000E+00
  3.906250E-01  2.265625E+01  0.000000E+00
  3.906250E-01  2.304688E+01  0.000000E+00
  3.906250E-01  2.343750E+01  0.000000E+00
  3.906250E-01  2.382812E+01  0.000000E+00
  3.906250E-01  2.421875E+01  0.000000E+00
  3.906250E-01  2.460938E+01  0.000000E+00
  7.812500E-01  0.000000E+00  0.000000E+00
  7.812500E-01  3.906250E-01  0.000000E+00
  7.812500E-01  7.812500E-01  0.000000E+00
  7.812500E-01  1.171875E+00  0.000000E+00
  7.812500E-01  1.562500E+00  0.000000E+00
  7.812500E-01  1.953125E+00  0.000000E+00
  7.812500E-01  2.343750E+00  0.000000E+00
  7.812500E-01  2.734375E+00  0.000000E+00
  7.812500E-01  3.125000E+00  0.000000E+00
  7.812500E-01  3.515625E+00  0.000000E+00
  7.812500E-01  3.906250E+00  0.000000E+00
  7.812500E-01  4.296875E+00  0.000000E+00
  7.812500E-01  4.687500E+00  0.000000E+00
  7.812500E-01  5.078125E+00  0.000000E+00
  7.812500E-01  5.468750E+00  0.000000E+00
  7.812500E-01  5.859375E+00  0.000000E+00
  7.812500E-01  6.250000E+00  0.000000E+00
  7.812500E-01  6.640625E+00  0.000000E+00
  7.812500E-01  7.031250E+00  0.000000E+00
  7.812500E-01  7.421875E+00  0.000000E+00
  7.812500E-01  7.812500E+00  0.000000E+00
  7.812500E-01  8.203125E+00  0.000000E+00
  7.812500E-01  8.593750E+00  0.000000E+00
  7.812500E-01  8.984375E+00  0.000000E+00
  7.812500E-01  9.375000E+00  0.000000E+00
  7.812500E-01  9.765625E+00  0.000000E+00
  7.812500E-01  1.015625E+01  0.000000E+00
  7.812500E-01  1.054688E+01  0.000000E+00
  7.812500E-01  1.093750E+01  0.000000E+00
  7.812500E-01  1.132812E+01  0.000000E+00
  7.812500E-01  1.171875E+01  0.000000E+00
  7.812500E-01  1.210938E+01  0.000000E+00
  7.812500E-01  1.250000E+01  0.000000E+00
  7.812500E-01  1.289062E+01  0.000000E+00
  7.812500E-01  1.328125E+01  0.000000E+00
  7.812500E-01  1.367188E+01  0.000000E+00
  7.812500E-01  1.406250E+01  0.000000E+00
  7.812500E-01  1.445312E+01  0.000000E+00
  7.812500E-01  1.484375E+01  0.000000E+00
  7.812500E-01  1.523438E+01  0.000000E+00
  7.812500E-01  1.562500E+01  0.000000E+00
  7.812500E-01  1.601562E+01  0.000000E+00
  7.812500E-01  1.640625E+01  0.000000E+00
  7.812500E-01  1.679688E+01  0.000000E+00
  7.812500E-01  1.718750E+01  0.000000E+00
  7.812500E-01  1.757812E+01  0.000000E+00
  7.812500E-01  1.796875E+01  0.000000E+00
  7.812500E-01  1.835938E+01  0.000000E+00
  7.812500E-01  1.875000E+01  0.000000E+00
  7.812500E-01  1.914062E+01  0.000000E+00
  7.812500E-01  1.953125E+01  0.000000E+00
  7.812500E-01  1.992188E+01  0.000000E+00
  7.812500E-01  2.031250E+01  0.000000E+00
  7.812500E-01  2.070312E+01  0.000000E+00
  7.812500E-01  2.109375E+01  0.000000E+00
  7.812500E-01  2.148438E+01  0.000000E+00
  7.812500E-01  2.187500E+01  0.000000E+00
  7.812500E-01  2.226562E+01  0.000000E+00
  7.812500E-01  2.265625E+01  0.000000E+00
  7.812500E-01  2.304688E+01  0.000000E+00
  7.812500E-01  2.343750E+01  0.000000E+00
  7.812500E-01  2.382812E+01  0.000000E+00
  7.812500E-01  2.421875E+01  0.000000E+00
  7.812500E-01  2.460938E+01  0.000000E+00
  1.171875E+00  0.000000E+00  0.000000E+00
  1.171875E+00  3.906250E-01  0.000000E+00
  1.171875E+00  7.812500E-01  0.000000E+00
  1.171875E+00  1.171875E+00  0.000000E+00
  1.171875E+00  1.562500E+00  0.000000E+00
  1.171875E+00  1.953125E+00  0.000000E+00
  1.171875E+00  2.343750E+00  0.000000E+00
  1.171875E+00  2.734375E+00  0.000000E+00
  1.171875E+00  3.125000E+00  0.000000E+00
  1.171875E+00  3.515625E+00  0.000000E+00
  1.171875E+00  3.906250E+00  0.000000E+00
  1.171875E+00  4.296875E+00  0.000000E+00
  1.171875E+00  4.687500E+00  0.000000E+00
  1.171875E+00  5.078125E+00  0.000000E+00
  1.171875E+00  5.468750E+00  0.000000E+00
  1.171875E+00  5.859375E+00  0.000000E+00
  1.171875E+00  6.250000E+00  0.000000E+00
  1.171875E+00  6.640625E+00  0.000000E+00
  1.171875E+00  7.031250E+00  0.000000E+00
  1.171875E+00  7.421875E+00  0.000000E+00
  1.171875E+00  7.812500E+00  0.000000E+00
  1.171875E+00  8.203125E+00  0.000000E+00
  1.171875E+00  8.593750E+00  0.000000E+00
  1.171875E+00  8.984375E+00  0.000000E+00
  1.171875E+00  9.375000E+00  0.000000E+00
  1.171875E+00  9.765625E+00  0.000000E+00
  1.171875E+00  1.015625E+01  0.000000E+00
  1.171875E+00  1.054688E+01  0.000000E+00
  1.171875E+00  1.093750E+01  0.000000E+00
  1.171875E+00  1.132812E+01  0.000000E+00
  1.171875E+00  1.171875E+01  0.000000E+00
  1.171875E+00  1.210938E+01  0.000000E+00
  1.171875E+00  1.250000E+01  0.000000E+00
  1.171875E+00  1.289062E+01  0.000000E+00
  1.171875E+00  1.328125E+01  0.000000E+00
  1.171875E+00  1.367188E+01  0.000000E+00
  1.171875E+00  1.406250E+01  0.000000E+00
  1.171875E+00  1.445312E+01  0.000000E+00
[...]
POINT_DATA   4096
SCALARS CON  float  1
LOOKUP_TABLE default
  4.001807E-01
  3.995947E-01
  4.045295E-01
  4.022637E-01
  4.030608E-01
  3.976386E-01
  3.991836E-01
  3.976562E-01
  4.023731E-01
  4.004060E-01
  4.019045E-01
  3.970521E-01
  3.981205E-01
  3.949692E-01
  3.982968E-01
  3.970759E-01
  4.017334E-01
  4.006532E-01
  4.036757E-01
  3.995285E-01
  3.997968E-01
  3.948186E-01
  3.959902E-01
  3.922821E-01
  3.939895E-01
  3.905571E-01
  3.936014E-01
  3.931066E-01
  3.992269E-01
  3.992470E-01
  4.022261E-01
  3.975154E-01
  3.981713E-01
  3.954142E-01
  3.999142E-01
  3.988496E-01
  4.012355E-01
  3.963531E-01
  3.966047E-01
  3.924987E-01
  3.948080E-01
  3.920187E-01
  3.943408E-01
  3.910817E-01
  3.933997E-01
  3.911959E-01
  3.959014E-01
  3.969930E-01
  4.040806E-01
  4.038369E-01
  4.052034E-01
  3.978814E-01
  3.958101E-01
  3.914352E-01
  3.967681E-01
  3.998513E-01
  4.084004E-01
  4.084279E-01
  4.099677E-01
  4.036514E-01
  4.028155E-01
  3.978612E-01
  3.994930E-01
  3.965775E-01
  4.008041E-01
  4.015348E-01
  4.074089E-01
  4.068015E-01
  4.065319E-01
  3.993704E-01
  3.975187E-01
  3.945904E-01
  3.984581E-01
  3.982814E-01
  4.012810E-01
  3.990197E-01
  4.007450E-01
  3.978394E-01
  3.988711E-01
  3.960137E-01
  3.989913E-01
  3.991702E-01
  4.034809E-01
  4.013314E-01
  4.011331E-01
  3.958633E-01
  3.960303E-01
  3.936217E-01
  3.963615E-01
  3.946025E-01
  3.967572E-01
  3.950062E-01
  3.985379E-01
  3.982933E-01
  4.016343E-01
  3.991455E-01
  3.999600E-01
  3.965479E-01
  3.980229E-01
  3.954511E-01
  3.970654E-01
  3.944732E-01
  3.966254E-01
  3.946111E-01
  3.961483E-01
  3.923125E-01
  3.924005E-01
  3.889382E-01
  3.909276E-01
  3.898463E-01
  3.944484E-01
  3.964897E-01
  4.036006E-01
  4.045119E-01
  4.056212E-01
  3.989391E-01
  3.968118E-01
  3.942798E-01
  4.007148E-01
  4.050801E-01
  4.120176E-01
  4.101016E-01
  4.086435E-01
  4.018360E-01
  4.009753E-01
  3.978184E-01
  3.998060E-01
  3.976634E-01
  3.945362E-01
  4.001824E-01
  4.069752E-01
  4.084402E-01
  4.064076E-01
  4.001809E-01
  3.966539E-01
  3.948979E-01
  3.972766E-01
  3.987774E-01
  4.009846E-01
  4.006242E-01
  4.010538E-01
  3.994706E-01
  3.992069E-01
  3.978900E-01
  3.991588E-01
  3.998220E-01
  4.018634E-01
  4.011462E-01
  4.005419E-01
  3.978039E-01
  3.968985E-01
  3.951701E-01
  3.954078E-01
  3.942519E-01
  3.946803E-01
  3.939400E-01
  3.951370E-01
  3.948289E-01
  3.954362E-01
  3.939739E-01
  3.944025E-01
  3.946361E-01
  3.974279E-01
  3.982871E-01
  3.989638E-01
  3.966219E-01
  3.955604E-01
  3.935783E-01
  3.933243E-01
  3.910584E-01
  3.898499E-01
  3.876378E-01
  3.883831E-01
  3.894899E-01
  3.938181E-01
  3.978225E-01
  4.031905E-01
  4.048228E-01
  4.043653E-01
  3.996284E-01
  3.965887E-01
  3.951018E-01
  3.990956E-01
  4.040044E-01
  4.096824E-01
  4.101450E-01
  4.077319E-01
  4.010567E-01
  3.957560E-01
  3.906319E-01
  3.894781E-01
  3.896971E-01
  3.946220E-01
  4.013183E-01
  4.060428E-01
  4.091028E-01
  4.046661E-01
  3.989472E-01
  3.922284E-01
  3.912757E-01
  3.920278E-01
  3.964776E-01
  3.988469E-01
  4.021860E-01
  4.020507E-01
  4.021590E-01
  3.989457E-01
  3.979035E-01
  3.967033E-01
  3.995849E-01
  4.010651E-01
  4.031451E-01
  4.011278E-01
  4.000260E-01
  3.974049E-01
  3.979761E-01
  3.972886E-01
  3.982673E-01
  3.963095E-01
  3.957429E-01
  3.936787E-01
  3.949001E-01
  3.952463E-01
  3.975713E-01
  3.969046E-01
  3.971098E-01
  3.948672E-01
  3.949124E-01
  3.937953E-01
  3.956280E-01
  3.960255E-01
  3.978151E-01
  3.958843E-01
  3.943366E-01
  3.908625E-01
  3.911560E-01
  3.915430E-01
  3.948126E-01
  3.959702E-01
  3.989924E-01
  4.000386E-01
  4.021986E-01
  4.002368E-01
  3.984583E-01
  3.952193E-01
  3.969188E-01
  3.999374E-01
  4.060283E-01
  4.079773E-01
  4.079348E-01
  4.025924E-01
  3.983529E-01
  3.932926E-01
  3.920014E-01
  3.902989E-01
  3.922407E-01
  3.913778E-01
  4.000825E-01
  4.027593E-01
  4.064099E-01
  4.003024E-01
  3.970934E-01
  3.902100E-01
  3.914693E-01
  3.906933E-01
  3.963609E-01
  3.970343E-01
  4.016653E-01
  3.996898E-01
  4.013255E-01
  3.973722E-01
  3.990207E-01
  3.969148E-01
  4.007901E-01
  3.997129E-01
  4.029204E-01
  4.000724E-01
  4.014351E-01
  3.972447E-01
  3.978902E-01
  3.937639E-01
  3.951212E-01
  3.919213E-01
  3.939377E-01
  3.912638E-01
  3.940989E-01
  3.924839E-01
  3.959372E-01
  3.940402E-01
  3.968830E-01
  3.948164E-01
  3.978610E-01
  3.956981E-01
  3.981822E-01
  3.954366E-01
  3.973946E-01
  3.936923E-01
  3.944681E-01
  3.908296E-01
  3.939737E-01
  3.940122E-01
  3.994487E-01
  3.986040E-01
  4.011906E-01
  3.979491E-01
  3.995272E-01
  3.957721E-01
  3.966405E-01
  3.928565E-01
  3.954796E-01
  3.950121E-01
  4.007256E-01
  4.010289E-01
  4.044750E-01
  4.003516E-01
  3.992438E-01
  3.922895E-01
  3.908492E-01
  3.863033E-01
  3.896624E-01
  3.954605E-01
  4.012146E-01
  4.010121E-01
  4.042962E-01
  3.979766E-01
  3.955610E-01
  3.880637E-01
  3.892873E-01
  3.876973E-01
  3.939098E-01
  3.946803E-01
  4.005266E-01
  3.986083E-01
  4.006871E-01
  3.958168E-01
  3.976258E-01
  3.955435E-01
  4.011952E-01
  4.010559E-01
  4.053370E-01
  4.014733E-01
  4.021184E-01
  3.964379E-01
  3.972097E-01
  3.929409E-01
  3.953287E-01
  3.921032E-01
  3.948311E-01
  3.921808E-01
  3.967757E-01
  3.967335E-01
  4.023579E-01
  3.997858E-01
  4.005412E-01
  3.943258E-01
  3.952585E-01
  3.926448E-01
  3.978130E-01
  3.972812E-01
  4.011498E-01
  3.967681E-01
  3.972199E-01
  3.931340E-01
  3.980180E-01
  3.991009E-01
  4.052042E-01
  4.019956E-01
  4.020012E-01
  3.956923E-01
  3.965994E-01
  3.926456E-01
  3.948987E-01
  3.916493E-01
  3.954348E-01
  3.945059E-01
  3.996083E-01
  3.975734E-01
  4.000229E-01
  3.959103E-01
  3.981402E-01
  3.950195E-01
  3.978623E-01
  3.944566E-01
  3.972298E-01
  3.939151E-01
  3.986990E-01
  3.982659E-01
  4.010010E-01
  3.965763E-01
  3.961576E-01
  3.913232E-01
  3.928815E-01
  3.910671E-01
  3.953416E-01
  3.949858E-01
  3.989063E-01
  3.964904E-01
  3.981035E-01
  3.950146E-01
  3.982984E-01
  3.980756E-01
  4.033022E-01
  4.026931E-01
  4.055779E-01
  4.018699E-01
  4.018871E-01
  3.958988E-01
  3.945756E-01
  3.891525E-01
  3.905194E-01
  3.888343E-01
  3.931023E-01
  3.926603E-01
  3.972895E-01
  3.970371E-01
  4.012356E-01
  3.990607E-01
  4.006813E-01
  3.972796E-01
  3.998234E-01
  3.981656E-01
  4.013329E-01
  3.985652E-01
  3.996920E-01
  3.951224E-01
  3.958406E-01
  3.932805E-01
  3.981582E-01
  3.996456E-01
  4.052194E-01
  4.026704E-01
  4.022766E-01
  3.961777E-01
  3.962874E-01
  3.929018E-01
  3.950478E-01
  3.921244E-01
  3.941577E-01
  3.916722E-01
  3.947345E-01
  3.932528E-01
  3.969329E-01
  3.956021E-01
  3.988546E-01
  3.962636E-01
  3.976552E-01
  3.936633E-01
  3.954315E-01
  3.963950E-01
  3.975502E-01
  3.971639E-01
  3.997360E-01
  3.981545E-01
  3.980593E-01
  3.945932E-01
  3.946996E-01
  3.932619E-01
  3.959580E-01
  3.963446E-01
  3.991883E-01
  3.978796E-01
  3.982816E-01
  3.957281E-01
  3.975134E-01
  3.985592E-01
  4.037715E-01
  4.053084E-01
  4.073019E-01
  4.036225E-01
  4.012015E-01
  3.956646E-01
  3.939837E-01
  3.910872E-01
  3.927851E-01
  3.927122E-01
  3.957552E-01
  3.959713E-01
  3.997240E-01
  4.014033E-01
  4.055390E-01
  4.044211E-01
  4.035397E-01
  3.989058E-01
  3.987056E-01
  3.979569E-01
  4.013171E-01
  4.010896E-01
  4.018902E-01
  3.981152E-01
  3.971357E-01
  3.951266E-01
  3.986568E-01
  4.005927E-01
  4.040435E-01
  4.015640E-01
  4.000210E-01
  3.959773E-01
  3.964878E-01
  3.951170E-01
  3.964798E-01
  3.946956E-01
  3.962778E-01
  3.956515E-01
  3.976927E-01
  3.957015E-01
  3.958286E-01
  3.937852E-01
  3.964232E-01
  3.974499E-01
  4.009011E-01
  3.995644E-01
  3.994688E-01
  3.918910E-01
  3.934152E-01
  3.947838E-01
  3.977105E-01
  3.988834E-01
  4.005284E-01
  4.000518E-01
  4.003123E-01
  3.992567E-01
  3.999000E-01
  3.995402E-01
  4.000727E-01
  3.984504E-01
  3.977510E-01
  3.966279E-01
  3.985391E-01
  4.006361E-01
  4.041736E-01
  4.051015E-01
  4.053158E-01
  4.024573E-01
  3.998499E-01
  3.956511E-01
  3.932647E-01
  3.911082E-01
  3.923123E-01
  3.938275E-01
  3.968180E-01
  3.976495E-01
  3.990013E-01
  3.990155E-01
  4.004675E-01
  4.003846E-01
  4.013249E-01
  4.012971E-01
  4.031405E-01
  4.034336E-01
  4.035397E-01
  4.005837E-01
  3.981479E-01
  3.950266E-01
  3.946226E-01
  3.944513E-01
  3.965821E-01
  3.975589E-01
  3.989981E-01
  3.980056E-01
  3.978748E-01
  3.970693E-01
  3.983890E-01
  3.984413E-01
  3.989194E-01
  3.973550E-01
  3.972462E-01
  3.966508E-01
  3.977966E-01
  3.973144E-01
  3.975056E-01
  3.962661E-01
  3.966471E-01
  3.959010E-01
  3.959480E-01
  3.939514E-01
  3.931053E-01
  3.929281E-01
  3.927235E-01
  3.942059E-01
  3.975495E-01
  3.999922E-01
  4.015190E-01
  4.010120E-01
  4.004493E-01
  3.996700E-01
  4.002536E-01
  4.007831E-01
  4.015206E-01
  4.005621E-01
  3.990803E-01
  3.970330E-01
  3.969871E-01
  3.985398E-01
  4.020126E-01
  4.043043E-01
  4.047662E-01
  4.020280E-01
  3.985904E-01
  3.952124E-01
  3.943044E-01
  3.950450E-01
  3.978303E-01
  4.000969E-01
  4.015546E-01
  4.008525E-01
  4.003034E-01
  4.000764E-01
  4.012208E-01
  4.014099E-01
  4.010612E-01
  3.997621E-01
  3.997862E-01
  4.001101E-01
  4.007806E-01
  3.996747E-01
  3.980308E-01
  3.957779E-01
  3.951234E-01
  3.953307E-01
  3.968743E-01
  3.974067E-01
  3.972631E-01
  3.958756E-01
  3.958536E-01
  3.969715E-01
  3.995091E-01
  4.005179E-01
  4.003002E-01
  3.989199E-01
  3.993633E-01
  4.008823E-01
  4.029022E-01
  4.022786E-01
  3.999853E-01
  3.968128E-01
  3.958932E-01
  3.963279E-01
  3.976442E-01
  3.970006E-01
  3.953123E-01
  3.894884E-01
  3.910106E-01
  3.929109E-01
  3.965066E-01
  3.989001E-01
  4.014367E-01
  4.016709E-01
  4.019016E-01
  4.008093E-01
  4.011682E-01
  4.008588E-01
  4.011650E-01
  3.993846E-01
  3.979820E-01
  3.961084E-01
  3.968299E-01
  3.980745E-01
  4.009118E-01
  4.019598E-01
  4.023967E-01
  4.000893E-01
  3.978465E-01
  3.947088E-01
  3.938511E-01
  3.939991E-01
  3.971236E-01
  3.998695E-01
  4.023345E-01
  4.012555E-01
  3.993132E-01
  3.961758E-01
  3.952970E-01
  3.949577E-01
  3.969313E-01
  3.986861E-01
  4.014103E-01
  4.016659E-01
  4.005469E-01
  3.965065E-01
  3.935338E-01
  3.914185E-01
  3.926077E-01
  3.939257E-01
  3.958415E-01
  3.955052E-01
  3.954580E-01
  3.948583E-01
  3.966588E-01
  3.985552E-01
  4.012496E-01
  4.012183E-01
  4.003196E-01
  3.978195E-01
  3.975605E-01
  3.981818E-01
  4.008464E-01
  4.018620E-01
  4.023627E-01
  4.005299E-01
  3.992054E-01
  3.966959E-01
  3.949877E-01
  3.920876E-01
  3.906625E-01
  3.926578E-01
  3.931377E-01
  3.937373E-01
  3.973150E-01
  3.986679E-01
  4.004171E-01
  3.987673E-01
  3.983730E-01
  3.966526E-01
  3.979474E-01
  3.981922E-01
  4.000451E-01
  3.987451E-01
  3.979322E-01
  3.949253E-01
  3.949917E-01
  3.953712E-01
  3.993399E-01
  4.014249E-01
  4.034228E-01
  4.008315E-01
  3.984306E-01
  3.944993E-01
  3.944706E-01
  3.951614E-01
  3.994474E-01
  4.018074E-01
  4.041823E-01
  4.022602E-01
  4.009139E-01
  3.980593E-01
  3.981289E-01
  3.968547E-01
  3.972769E-01
  3.957791E-01
  3.966282E-01
  3.960886E-01
  3.971442E-01
  3.954548E-01
  3.950447E-01
  3.931760E-01
  3.943420E-01
  3.947505E-01
  3.971865E-01
  3.969198E-01
  3.975361E-01
  3.962415E-01
  3.978596E-01
  3.986515E-01
  4.009554E-01
  3.995359E-01
  3.982577E-01
  3.952890E-01
  3.963343E-01
  3.978863E-01
  4.019055E-01
  4.025519E-01
  4.029873E-01
  4.005874E-01
  4.004948E-01
  3.992101E-01
  3.996100E-01
  3.971134E-01
  3.956393E-01
  3.909092E-01
  3.932214E-01
  3.936959E-01
  3.969389E-01
  3.974910E-01
  3.998632E-01
  3.985241E-01
  3.987309E-01
  3.962886E-01
  3.971242E-01
  3.961846E-01
  3.976804E-01
  3.958228E-01
  3.959420E-01
  3.940055E-01
  3.958445E-01
  3.963525E-01
  3.998914E-01
  4.005637E-01
  4.027196E-01
  4.007460E-01
  3.997368E-01
  3.953520E-01
  3.940169E-01
  3.920295E-01
  3.948979E-01
  3.966961E-01
  4.005955E-01
  3.999104E-01
  3.995862E-01
  3.958027E-01
  3.951589E-01
  3.933984E-01
  3.955108E-01
  3.958775E-01
  3.986633E-01
  3.978102E-01
  3.978754E-01
  3.943269E-01
  3.935756E-01
  3.917214E-01
  3.938701E-01
  3.940921E-01
  3.964592E-01
  3.956739E-01
  3.972931E-01
  3.968245E-01
  3.993007E-01
  3.989300E-01
  3.999168E-01
  3.969278E-01
  3.957630E-01
  3.926449E-01
  3.936113E-01
  3.937955E-01
  3.976230E-01
  3.991042E-01
  4.024800E-01
  4.020497E-01
  4.025509E-01
  3.989473E-01
  3.970098E-01
  3.927936E-01
  3.923314E-01
  3.953931E-01
  3.960448E-01
  3.955117E-01
  3.976939E-01
  3.978609E-01
  3.991033E-01
  3.970664E-01
  3.963311E-01
  3.939489E-01
  3.946374E-01
  3.942948E-01
  3.961247E-01
  3.953710E-01
  3.959301E-01
  3.944211E-01
  3.956625E-01
  3.961331E-01
  3.996232E-01
  4.012681E-01
  4.038921E-01
  4.025355E-01
  4.012144E-01
  3.969187E-01
  3.951552E-01
  3.930563E-01
  3.948075E-01
  3.956985E-01
  3.985213E-01
  3.984068E-01
  3.994042E-01
  3.981485E-01
  3.990295E-01
  3.977297E-01
  3.977925E-01
  3.953723E-01
  3.952404E-01
  3.940477E-01
  3.957249E-01
  3.956602E-01
  3.972368E-01
  3.962706E-01
  3.970422E-01
  3.960242E-01
  3.974341E-01
  3.970429E-01
  3.984298E-01
  3.974079E-01
  3.980976E-01
  3.965290E-01
  3.964929E-01
  3.939513E-01
  3.935471E-01
  3.923537E-01
  3.948521E-01
  3.963942E-01
  3.995995E-01
  3.995215E-01
  4.002969E-01
  3.986573E-01
  3.991717E-01
  3.978582E-01
  3.985056E-01
  3.969388E-01
  3.971617E-01
  3.955267E-01
  3.967501E-01
  3.963985E-01
  3.967108E-01
  3.970174E-01
  3.983608E-01
  3.984652E-01
  3.982021E-01
  3.966363E-01
  3.958762E-01
  3.948467E-01
  3.946620E-01
  3.939235E-01
  3.944805E-01
  3.954568E-01
  3.978709E-01
  3.994020E-01
  4.008151E-01
  4.010840E-01
  4.021011E-01
  4.022131E-01
  4.017330E-01
  3.986347E-01
  3.949532E-01
  3.910716E-01
  3.899255E-01
  3.905431E-01
  3.931948E-01
  3.948121E-01
  3.956723E-01
  3.947367E-01
  3.945622E-01
  3.947111E-01
  3.964551E-01
  3.976071E-01
  3.986419E-01
  3.978801E-01
  3.970685E-01
  3.956505E-01
  3.955822E-01
  3.954946E-01
  3.962339E-01
  3.960375E-01
  3.963332E-01
  3.961101E-01
  3.967898E-01
  3.966295E-01
  3.964969E-01
  3.949617E-01
  3.938763E-01
  3.926815E-01
  3.932857E-01
  3.942400E-01
  3.961516E-01
  3.968720E-01
  3.975306E-01
  3.971606E-01
  3.974307E-01
  3.967016E-01
  3.958420E-01
  3.936730E-01
  3.925996E-01
  3.923122E-01
  3.941189E-01
  4.024254E-01
  4.008141E-01
  3.990245E-01
  3.970746E-01
  3.970737E-01
  3.968603E-01
  3.972143E-01
  3.963396E-01
  3.960998E-01
  3.952016E-01
  3.952055E-01
  3.944616E-01
  3.947226E-01
  3.948293E-01
  3.965431E-01
  3.979509E-01
  3.999784E-01
  4.007016E-01
  4.018771E-01
  4.021237E-01
  4.026921E-01
  4.013166E-01
  3.992954E-01
  3.956413E-01
  3.930976E-01
  3.911102E-01
  3.915237E-01
  3.922378E-01
  3.939109E-01
  3.944823E-01
  3.957579E-01
  3.965911E-01
  3.983533E-01
  3.986403E-01
  3.984217E-01
  3.965058E-01
  3.956202E-01
  3.951214E-01
  3.965336E-01
  3.973812E-01
  3.983068E-01
  3.976300E-01
  3.976623E-01
  3.975112E-01
  3.984845E-01
  3.979824E-01
  3.969237E-01
  3.942107E-01
  3.925911E-01
  3.914212E-01
  3.925281E-01
  3.941901E-01
  3.975008E-01
  3.999137E-01
  4.016746E-01
  4.003322E-01
  3.978161E-01
  3.938980E-01
  3.915667E-01
  3.901277E-01
  3.914692E-01
  3.938973E-01
  3.981132E-01
  4.009351E-01
  4.035870E-01
  4.023486E-01
  3.999732E-01
  3.963246E-01
  3.956799E-01
  3.955750E-01
  3.973873E-01
  3.975289E-01
  3.981485E-01
  3.968182E-01
  3.961577E-01
  3.939139E-01
  3.934069E-01
  3.932470E-01
  3.962896E-01
  3.988835E-01
  4.016101E-01
  4.010020E-01
  4.005164E-01
  3.992632E-01
  4.002464E-01
  3.997840E-01
  3.989036E-01
  3.948770E-01
  3.916536E-01
  3.886598E-01
  3.893186E-01
  3.904130E-01
  3.926873E-01
  3.924469E-01
  3.926659E-01
  3.924385E-01
  3.952737E-01
  3.979728E-01
  4.011964E-01
  4.009704E-01
  3.998782E-01
  3.966894E-01
  3.953387E-01
  3.939650E-01
  3.948629E-01
  3.950049E-01
  3.965936E-01
  3.969946E-01
  3.983634E-01
  3.975154E-01
  3.965909E-01
  3.935730E-01
  3.921967E-01
  3.911460E-01
  3.933461E-01
  3.957349E-01
  3.994367E-01
  4.003714E-01
  4.002478E-01
  3.970544E-01
  3.947232E-01
  3.918324E-01
  3.910052E-01
  3.895034E-01
  3.901818E-01
  3.914870E-01
  3.961557E-01
  4.001919E-01
  4.083068E-01
  4.049003E-01
  4.013696E-01
  3.969840E-01
  3.956824E-01
  3.942189E-01
  3.948447E-01
  3.942725E-01
  3.952942E-01
  3.947243E-01
  3.951679E-01
  3.937016E-01
  3.938107E-01
  3.933270E-01
  3.954333E-01
  3.966085E-01
  3.987395E-01
  3.983011E-01
  3.986190E-01
  3.975716E-01
  3.984489E-01
  3.978638E-01
  3.980290E-01
  3.957850E-01
  3.946876E-01
  3.927946E-01
  3.935572E-01
  3.936672E-01
  3.951507E-01
  3.947248E-01
  3.959967E-01
  3.969011E-01
  4.001170E-01
  4.011872E-01
  4.016461E-01
  3.986790E-01
  3.968403E-01
  3.947017E-01
  3.954201E-01
  3.951997E-01
  3.961910E-01
  3.956559E-01
  3.973098E-01
  3.983425E-01
  4.004658E-01
  3.990816E-01
  3.968366E-01
  3.923816E-01
  3.908113E-01
  3.902928E-01
  3.933283E-01
  3.958552E-01
  3.996282E-01
  4.006904E-01
  4.012590E-01
  3.983374E-01
  3.957666E-01
  3.919766E-01
  3.909922E-01
  3.904809E-01
  3.936169E-01
  3.973278E-01
  4.034147E-01
  4.067567E-01
  4.042038E-01
  4.020134E-01
  4.001495E-01
  3.958926E-01
  3.951629E-01
  3.936486E-01
  3.950759E-01
  3.942417E-01
  3.953618E-01
  3.939818E-01
  3.945117E-01
  3.925129E-01
  3.929524E-01
  3.921918E-01
  3.949553E-01
  3.958251E-01
  3.977046E-01
  3.954590E-01
  3.946759E-01
  3.927457E-01
  3.949496E-01
  3.958349E-01
  3.980197E-01
  3.960358E-01
  3.951819E-01
  3.927656E-01
  3.943428E-01
  3.948335E-01
  3.970568E-01
  3.956012E-01
  3.958362E-01
  3.950507E-01
  3.984254E-01
  4.002475E-01
  4.029856E-01
  4.010619E-01
  3.995903E-01
  3.954920E-01
  3.943733E-01
  3.921993E-01
  3.934260E-01
  3.934542E-01
  3.964594E-01
  3.972855E-01
  3.993641E-01
  3.973524E-01
  3.959236E-01
  3.918491E-01
  3.911331E-01
  3.902021E-01
  3.933067E-01
  3.949552E-01
  3.982350E-01
  3.976579E-01
  3.977561E-01
  3.951722E-01
  3.957585E-01
  3.954028E-01
  3.976674E-01
  3.969701E-01
  3.978806E-01
  3.971407E-01
  4.001381E-01
  4.016316E-01
  4.034178E-01
  3.997343E-01
  3.997515E-01
  3.960042E-01
  3.966955E-01
  3.934453E-01
  3.941779E-01
  3.910496E-01
  3.924551E-01
  3.905029E-01
  3.931131E-01
  3.920070E-01
  3.950008E-01
  3.938363E-01
  3.963400E-01
  3.941514E-01
  3.952278E-01
  3.918022E-01
  3.927310E-01
  3.908197E-01
  3.943672E-01
  3.947247E-01
  3.988070E-01
  3.977009E-01
  3.997055E-01
  3.975980E-01
  4.000731E-01
  3.986986E-01
  4.008698E-01
  3.984731E-01
  4.005792E-01
  3.997518E-01
  4.033176E-01
  4.013798E-01
  4.012012E-01
  3.957272E-01
  3.951371E-01
  3.924773E-01
  3.952701E-01
  3.942022E-01
  3.967390E-01
  3.952949E-01
  3.986293E-01
  3.983464E-01
  4.011446E-01
  3.976518E-01
  3.963433E-01
  3.909361E-01
  3.912366E-01
  3.896547E-01
  3.934320E-01
  3.935178E-01
  3.973716E-01
  3.967167E-01
  3.996480E-01
  3.982664E-01
  4.010449E-01
  4.000398E-01
  4.030715E-01
  4.015208E-01
  4.035660E-01
  4.015579E-01
  4.039142E-01
  4.020552E-01
  3.967093E-01
  3.953566E-01
  3.982534E-01
  3.954916E-01
  3.974610E-01
  3.945589E-01
  3.964693E-01
  3.930759E-01
  3.943976E-01
  3.911275E-01
  3.935140E-01
  3.917701E-01
  3.954939E-01
  3.945333E-01
  3.982450E-01
  3.959503E-01
  3.969491E-01
  3.917861E-01
  3.919035E-01
  3.891953E-01
  3.938632E-01
  3.947443E-01
  3.995920E-01
  3.974345E-01
  3.989844E-01
  3.960553E-01
  3.993886E-01
  3.982806E-01
  4.011620E-01
  3.976744E-01
  3.988605E-01
  3.961981E-01
  3.996541E-01
  3.980981E-01
  4.003320E-01
  3.964634E-01
  3.972002E-01
  3.933317E-01
  3.949273E-01
  3.922870E-01
  3.955088E-01
  3.947924E-01
  3.994296E-01
  3.984681E-01
  4.009386E-01
  3.968580E-01
  3.969874E-01
  3.925421E-01
  3.940577E-01