# vtk DataFile Version 2.0
title
ASCII
DATASET STRUCTURED_GRID
DIMENSIONS   64   64    1
POINTS   4096  float
  0.000000E+00  0.000000E+00  0.000000E+00
  0.000000E+00  3.906250E-01  0.000000E+00
  0.000000E+00  7.812500E-01  0.000000E+00
  0.000000E+00  1.171875E+00  0.000000E+00
  0.000000E+00  1.562500E+00  0.000000E+00
  0.000000E+00  1.953125E+00  0.000000E+00
  0.000000E+00  2.343750E+00  0.000000E+00
  0.000000E+00  2.734375E+00  0.000000E+00
  0.000000E+00  3.125000E+00  0.000000E+00
  0.000000E+00  3.515625E+00  0.000000E+00
  0.000000E+00  3.906250E+00  0.000000E+00
  0.000000E+00  4.296875E+00  0.000000E+00
  0.000000E+00  4.687500E+00  0.000000E+00
  0.000000E+00  5.078125E+00  0.000000E+00
  0.000000E+00  5.468750E+00  0.000000E+00
  0.000000E+00  5.859375E+00  0.000000E+00
  0.000000E+00  6.250000E+00  0.000000E+00
  0.000000E+00  6.640625E+00  0.000000E+00
  0.000000E+00  7.031250E+00  0.000000E+00
  0.000000E+00  7.421875E+00  0.000000E+00
  0.000000E+00  7.812500E+00  0.000000E+00
  0.000000E+00  8.203125E+00  0.000000E+00
  0.000000E+00  8.593750E+00  0.000000E+00
  0.000000E+00  8.984375E+00  0.000000E+00
  0.000000E+00  9.375000E+00  0.000000E+00
  0.000000E+00  9.765625E+00  0.000000E+00
  0.000000E+00  1.015625E+01  0.000000E+00
  0.000000E+00  1.054688E+01  0.000000E+00
  0.000000E+00  1.093750E+01  0.000000E+00
  0.000000E+00  1.132812E+01  0.000000E+00
  0.000000E+00  1.171875E+01  0.000000E+00
  0.000000E+00  1.210938E+01  0.000000E+00
  0.000000E+00  1.250000E+01  0.000000E+00
  0.000000E+00  1.289062E+01  0.000000E+00
  0.000000E+00  1.328125E+01  0.000000E+00
  0.000000E+00  1.367188E+01  0.000000E+00
  0.000000E+00  1.406250E+01  0.000000E+00
  0.000000E+00  1.445312E+01  0.000000E+00
  0.000000E+00  1.484375E+01  0.000000E+00
  0.000000E+00  1.523438E+01  0.000000E+00
  0.000000E+00  1.562500E+01  0.000000E+00
  0.000000E+00  1.601562E+01  0.000000E+00
  0.000000E+00  1.640625E+01  0.000000E+00
  0.000000E+00  1.679688E+01  0.000000E+00
  0.000000E+00  1.718750E+01  0.000000E+00
  0.000000E+00  1.757812E+01  0.000000E+00
  0.000000E+00  1.796875E+01  0.000000E+00
  0.000000E+00  1.835938E+01  0.000000E+00
  0.000000E+00  1.875000E+01  0.000000E+00
  0.000000E+00  1.914062E+01  0.000000E+00
  0.000000E+00  1.953125E+01  0.000000E+00
  0.000000E+00  1.992188E+01  0.000000E+00
  0.000000E+00  2.031250E+01  0.000000E+00
  0.000000E+00  2.070312E+01  0.000000E+00
  0.000000E+00  2.109375E+01  0.000000E+00
  0.000000E+00  2.148438E+01  0.000000E+00
  0.000000E+00  2.187500E+01  0.000000E+00
  0.000000E+00  2.226562E+01  0.000000E+00
  0.000000E+00  2.265625E+01  0.000000E+00
  0.000000E+00  2.304688E+01  0.000000E+00
  0.000000E+00  2.343750E+01  0.000000E+00
  0.000000E+00  2.382812E+01  0.000000E+00
  0.000000E+00  2.421875E+01  0.000000E+00
  0.000000E+00  2.460938E+01  0.000000E+00
  3.906250E-01  0.000000E+00  0.000000E+00
  3.906250E-01  3.906250E-01  0.000000E+00
  3.906250E-01  7.812500E-01  0.000000E+00
  3.906250E-01  1.171875E+00  0.000000E+00
  3.906250E-01  1.562500E+00  0.000000E+00
  3.906250E-01  1.953125E+00  0.000000E+00
  3.906250E-01  2.343750E+00  0.000000E+00
  3.906250E-01  2.734375E+00  0.000000E+00
  3.906250E-01  3.125000E+00  0.000000E+00
  3.906250E-01  3.515625E+00  0.000000E+00
  3.906250E-01  3.906250E+00  0.000000E+00
  3.906250E-01  4.296875E+00  0.000000E+00
  3.906250E-01  4.687500E+00  0.000000E+00
  3.906250E-01  5.078125E+00  0.000000E+00
  3.906250E-01  5.468750E+00  0.000000E+00
  3.906250E-01  5.859375E+00  0.000000E+00
  3.906250E-01  6.250000E+00  0.000000E+00
  3.906250E-01  6.640625E+00  0.000000E+00
  3.906250E-01  7.031250E+00  0.000000E+00
  3.906250E-01  7.421875E+00  0.000000E+00
  3.906250E-01  7.812500E+00  0.000000E+00
  3.906250E-01  8.203125E+00  0.000000E+00
  3.906250E-01  8.593750E+00  0.000000E+00
  3.906250E-01  8.984375E+00  0.000000E+00
  3.906250E-01  9.375000E+00  0.000000E+00
  3.906250E-01  9.765625E+00  0.000000E+00
  3.906250E-01  1.015625E+01  0.000000E+00
  3.906250E-01  1.054688E+01  0.000000E+00
  3.906250E-01  1.093750E+01  0.000000E+00
  3.906250E-01  1.132812E+01  0.000000E+00
  3.906250E-01  1.171875E+01  0.000000E+00
  3.906250E-01  1.210938E+01  0.000000E+00
  3.906250E-01  1.250000E+01  0.000000E+00
  3.906250E-01  1.289062E+01  0.000000E+00
  3.906250E-01  1.328125E+01  0.000000E+00
  3.906250E-01  1.367188E+01  0.000000E+00
  3.906250E-01  1.406250E+01  0.000000E+00
  3.906250E-01  1.445312E+01  0.000000E+00
  3.906250E-01  1.484375E+01  0.000000E+00
  3.906250E-01  1.523438E+01  0.000000E+00
  3.906250E-01  1.562500E+01  0.000000E+00
  3.906250E-01  1.601562E+01  0.000000E+00
  3.906250E-01  1.640625E+01  0.000000E+00
  3.906250E-01  1.679688E+01  0.000000E+00
  3.906250E-01  1.718750E+01  0.000000E+00
  3.906250E-01  1.757812E+01  0.000000E+00
  3.906250E-01  1.796875E+01  0.000000E+00
  3.906250E-01  1.835938E+01  0.000000E+00
  3.906250E-01  1.875000E+01  0.000000E+00
  3.906250E-01  1.914062E+01  0.000000E+00
  3.906250E-01  1.953125E+01  0.000000E+00
  3.906250E-01  1.992188E+01  0.000000E+00
  3.906250E-01  2.031250E+01  0.000000E+00
  3.906250E-01  2.070312E+01  0.000000E+00
  3.906250E-01  2.109375E+01  0.000000E+00
  3.906250E-01  2.148438E+01  0.000000E+00
  3.906250E-01  2.187500E+01  0.000000E+00
  3.906250E-01  2.226562E+01  0.000000E+00
  3.906250E-01  2.265625E+01  0.000000E+00
  3.906250E-01  2.304688E+01  0.000000E+00
  3.906250E-01  2.343750E+01  0.000000E+00
  3.906250E-01  2.382812E+01  0.000000E+00
  3.906250E-01  2.421875E+01  0.000000E+00
  3.906250E-01  2.460938E+01  0.000000E+00
  7.812500E-01  0.000000E+00  0.000000E+00
  7.812500E-01  3.906250E-01  0.000000E+00
  7.812500E-01  7.812500E-01  0.000000E+00
  7.812500E-01  1.171875E+00  0.000000E+00
  7.812500E-01  1.562500E+00  0.000000E+00
  7.812500E-01  1.953125E+00  0.000000E+00
  7.812500E-01  2.343750E+00  0.000000E+00
  7.812500E-01  2.734375E+00  0.000000E+00
  7.812500E-01  3.125000E+00  0.000000E+00
  7.812500E-01  3.515625E+00  0.000000E+00
  7.812500E-01  3.906250E+00  0.000000E+00
  7.812500E-01  4.296875E+00  0.000000E+00
  7.812500E-01  4.687500E+00  0.000000E+00
  7.812500E-01  5.078125E+00  0.000000E+00
  7.812500E-01  5.468750E+00  0.000000E+00
  7.812500E-01  5.859375E+00  0.000000E+00
  7.812500E-01  6.250000E+00  0.000000E+00
  7.812500E-01  6.640625E+00  0.000000E+00
  7.812500E-01  7.031250E+00  0.000000E+00
  7.812500E-01  7.421875E+00  0.000000E+00
  7.812500E-01  7.812500E+00  0.000000E+00
  7.812500E-01  8.203125E+00  0.000000E+00
  7.812500E-01  8.593750E+00  0.000000E+00
  7.812500E-01  8.984375E+00  0.000000E+00
  7.812500E-01  9.375000E+00  0.000000E+00
  7.812500E-01  9.765625E+00  0.000000E+00
  7.812500E-01  1.015625E+01  0.000000E+00
  7.812500E-01  1.054688E+01  0.000000E+00
  7.812500E-01  1.093750E+01  0.000000E+00
  7.812500E-01  1.132812E+01  0.000000E+00
  7.812500E-01  1.171875E+01  0.000000E+00
  7.812500E-01  1.210938E+01  0.000000E+00
  7.812500E-01  1.250000E+01  0.000000E+00
  7.812500E-01  1.289062E+01  0.000000E+00
  7.812500E-01  1.328125E+01  0.000000E+00
  7.812500E-01  1.367188E+01  0.000000E+00
  7.812500E-01  1.406250E+01  0.000000E+00
  7.812500E-01  1.445312E+01  0.000000E+00
  7.812500E-01  1.484375E+01  0.000000E+00
  7.812500E-01  1.523438E+01  0.000000E+00
  7.812500E-01  1.562500E+01  0.000000E+00
  7.812500E-01  1.601562E+01  0.000000E+00
  7.812500E-01  1.640625E+01  0.000000E+00
  7.812500E-01  1.679688E+01  0.000000E+00
  7.812500E-01  1.718750E+01  0.000000E+00
  7.812500E-01  1.757812E+01  0.000000E+00
  7.812500E-01  1.796875E+01  0.000000E+00
  7.812500E-01  1.835938E+01  0.000000E+00
  7.812500E-01  1.875000E+01  0.000000E+00
  7.812500E-01  1.914062E+01  0.000000E+00
  7.812500E-01  1.953125E+01  0.000000E+00
  7.812500E-01  1.992188E+01  0.000000E+00
  7.812500E-01  2.031250E+01  0.000000E+00
  7.812500E-01  2.070312E+01  0.000000E+00
  7.812500E-01  2.109375E+01  0.000000E+00
  7.812500E-01  2.148438E+01  0.000000E+00
  7.812500E-01  2.187500E+01  0.000000E+00
  7.812500E-01  2.226562E+01  0.000000E+00
  7.812500E-01  2.265625E+01  0.000000E+00
  7.812500E-01  2.304688E+01  0.000000E+00
  7.812500E-01  2.343750E+01  0.000000E+00
  7.812500E-01  2.382812E+01  0.000000E+00
  7.812500E-01  2.421875E+01  0.000000E+00
  7.812500E-01  2.460938E+01  0.000000E+00
  1.171875E+00  0.000000E+00  0.000000E+00
  1.171875E+00  3.906250E-01  0.000000E+00
  1.171875E+00  7.812500E-01  0.000000E+00
  1.171875E+00  1.171875E+00  0.000000E+00
  1.171875E+00  1.562500E+00  0.000000E+00
  1.171875E+00  1.953125E+00  0.000000E+00
  1.171875E+00  2.343750E+00  0.000000E+00
  1.171875E+00  2.734375E+00  0.000000E+00
  1.171875E+00  3.125000E+00  0.000000E+00
  1.171875E+00  3.515625E+00  0.000000E+00
  1.171875E+00  3.906250E+00  0.000000E+00
  1.171875E+00  4.296875E+00  0.000000E+00
  1.171875E+00  4.687500E+00  0.000000E+00
  1.171875E+00  5.078125E+00  0.000000E+00
  1.171875E+00  5.468750E+00  0.000000E+00
  1.171875E+00  5.859375E+00  0.000000E+00
  1.171875E+00  6.250000E+00  0.000000E+00
  1.171875E+00  6.640625E+00  0.000000E+00
  1.171875E+00  7.031250E+00  0.000000E+00
  1.171875E+00  7.421875E+00  0.000000E+00
  1.171875E+00  7.812500E+00  0.000000E+00
  1.171875E+00  8.203125E+00  0.000000E+00
  1.171875E+00  8.593750E+00  0.000000E+00
  1.171875E+00  8.984375E+00  0.000000E+00
  1.171875E+00  9.375000E+00  0.000000E+00
  1.171875E+00  9.765625E+00  0.000000E+00
  1.171875E+00  1.015625E+01  0.000000E+00
  1.171875E+00  1.054688E+01  0.000000E+00
  1.171875E+00  1.093750E+01  0.000000E+00
  1.171875E+00  1.132812E+01  0.000000E+00
  1.171875E+00  1.171875E+01  0.000000E+00
  1.171875E+00  1.210938E+01  0.000000E+00
  1.171875E+00  1.250000E+01  0.000000E+00
  1.171875E+00  1.289062E+01  0.000000E+00
  1.171875E+00  1.328125E+01  0.000000E+00
  1.171875E+00  1.367188E+01  0.000000E+00
  1.171875E+00  1.406250E+01  0.000000E+00
  1.171875E+00  1.445312E+01  0.000000E+00
[...]
POINT_DATA   4096
SCALARS CON  float  1
LOOKUP_TABLE default
  3.347739E-01
  3.346792E-01
  3.387923E-01
  3.365967E-01
  3.379691E-01
  3.340189E-01
  3.354817E-01
  3.330821E-01
  3.361546E-01
  3.342192E-01
  3.364172E-01
  3.330509E-01
  3.344050E-01
  3.314713E-01
  3.343096E-01
  3.331173E-01
  3.370307E-01
  3.356366E-01
  3.382018E-01
  3.349048E-01
  3.358167E-01
  3.316219E-01
  3.323352E-01
  3.284744E-01
  3.298784E-01
  3.271906E-01
  3.302079E-01
  3.291857E-01
  3.332126E-01
  3.319154E-01
  3.345834E-01
  3.317212E-01
  3.336933E-01
  3.313685E-01
  3.344465E-01
  3.327195E-01
  3.352494E-01
  3.320801E-01
  3.331571E-01
  3.292856E-01
  3.304994E-01
  3.272581E-01
  3.291344E-01
  3.265334E-01
  3.292740E-01
  3.280927E-01
  3.327581E-01
  3.332730E-01
  3.383437E-01
  3.370185E-01
  3.384571E-01
  3.334543E-01
  3.333225E-01
  3.300312E-01
  3.340105E-01
  3.350591E-01
  3.412234E-01
  3.408474E-01
  3.427991E-01
  3.376533E-01
  3.365902E-01
  3.312982E-01
  3.324001E-01
  3.304760E-01
  3.365831E-01
  3.372775E-01
  3.407023E-01
  3.390955E-01
  3.390312E-01
  3.345842E-01
  3.338534E-01
  3.311343E-01
  3.332411E-01
  3.328376E-01
  3.356968E-01
  3.344562E-01
  3.357583E-01
  3.333049E-01
  3.344255E-01
  3.328905E-01
  3.354439E-01
  3.349232E-01
  3.373370E-01
  3.354139E-01
  3.359007E-01
  3.325676E-01
  3.327423E-01
  3.300990E-01
  3.313390E-01
  3.296849E-01
  3.317405E-01
  3.308731E-01
  3.336936E-01
  3.332339E-01
  3.357509E-01
  3.341760E-01
  3.351922E-01
  3.323881E-01
  3.329238E-01
  3.304827E-01
  3.318791E-01
  3.302710E-01
  3.319894E-01
  3.300009E-01
  3.308350E-01
  3.279938E-01
  3.285335E-01
  3.262791E-01
  3.282175E-01
  3.279115E-01
  3.319151E-01
  3.330953E-01
  3.372242E-01
  3.365591E-01
  3.374553E-01
  3.338707E-01
  3.340668E-01
  3.327432E-01
  3.369344E-01
  3.389478E-01
  3.436849E-01
  3.427879E-01
  3.427968E-01
  3.379288E-01
  3.364617E-01
  3.327139E-01
  3.337842E-01
  3.329542E-01
  3.317419E-01
  3.353754E-01
  3.390689E-01
  3.396420E-01
  3.385986E-01
  3.353065E-01
  3.331533E-01
  3.315615E-01
  3.324004E-01
  3.332834E-01
  3.349943E-01
  3.351376E-01
  3.353364E-01
  3.342552E-01
  3.341968E-01
  3.338367E-01
  3.349092E-01
  3.353262E-01
  3.362968E-01
  3.357016E-01
  3.352175E-01
  3.333607E-01
  3.322159E-01
  3.303646E-01
  3.297263E-01
  3.287263E-01
  3.291400E-01
  3.291804E-01
  3.303047E-01
  3.304609E-01
  3.311607E-01
  3.307564E-01
  3.312590E-01
  3.311942E-01
  3.322446E-01
  3.323561E-01
  3.328508E-01
  3.318145E-01
  3.310607E-01
  3.291297E-01
  3.280127E-01
  3.262484E-01
  3.257956E-01
  3.252239E-01
  3.264722E-01
  3.279339E-01
  3.311098E-01
  3.336932E-01
  3.364812E-01
  3.368714E-01
  3.363561E-01
  3.339112E-01
  3.326697E-01
  3.322403E-01
  3.348358E-01
  3.380126E-01
  3.417990E-01
  3.426452E-01
  3.414846E-01
  3.371590E-01
  3.329655E-01
  3.288332E-01
  3.276600E-01
  3.281882E-01
  3.330358E-01
  3.372342E-01
  3.389085E-01
  3.401814E-01
  3.371107E-01
  3.342173E-01
  3.297822E-01
  3.287752E-01
  3.282562E-01
  3.311498E-01
  3.328337E-01
  3.355908E-01
  3.352650E-01
  3.354956E-01
  3.335477E-01
  3.338275E-01
  3.333653E-01
  3.354695E-01
  3.358922E-01
  3.373079E-01
  3.358508E-01
  3.353314E-01
  3.328813E-01
  3.324906E-01
  3.307941E-01
  3.311303E-01
  3.299287E-01
  3.307425E-01
  3.302757E-01
  3.319931E-01
  3.321058E-01
  3.335787E-01
  3.325508E-01
  3.325523E-01
  3.305711E-01
  3.306921E-01
  3.297873E-01
  3.311740E-01
  3.308180E-01
  3.316105E-01
  3.298865E-01
  3.294842E-01
  3.276209E-01
  3.283278E-01
  3.283278E-01
  3.308477E-01
  3.319578E-01
  3.346035E-01
  3.347702E-01
  3.356004E-01
  3.336729E-01
  3.331650E-01
  3.316437E-01
  3.334015E-01
  3.349627E-01
  3.388317E-01
  3.400010E-01
  3.408689E-01
  3.378677E-01
  3.355011E-01
  3.315408E-01
  3.304111E-01
  3.291103E-01
  3.312151E-01
  3.290050E-01
  3.347907E-01
  3.358222E-01
  3.386309E-01
  3.349125E-01
  3.337121E-01
  3.287649E-01
  3.292590E-01
  3.277061E-01
  3.314339E-01
  3.315871E-01
  3.351173E-01
  3.336306E-01
  3.352771E-01
  3.327610E-01
  3.346852E-01
  3.334075E-01
  3.366270E-01
  3.357878E-01
  3.382211E-01
  3.356043E-01
  3.360450E-01
  3.320059E-01
  3.319289E-01
  3.282884E-01
  3.291781E-01
  3.267923E-01
  3.289154E-01
  3.275274E-01
  3.302621E-01
  3.290377E-01
  3.316211E-01
  3.301239E-01
  3.325565E-01
  3.310842E-01
  3.335605E-01
  3.318755E-01
  3.337203E-01
  3.310480E-01
  3.318512E-01
  3.285234E-01
  3.294248E-01
  3.271355E-01
  3.297355E-01
  3.292335E-01
  3.330676E-01
  3.327769E-01
  3.358275E-01
  3.340028E-01
  3.352280E-01
  3.317935E-01
  3.321691E-01
  3.291785E-01
  3.313290E-01
  3.308997E-01
  3.352606E-01
  3.354078E-01
  3.381880E-01
  3.350658E-01
  3.343329E-01
  3.290117E-01
  3.282099E-01
  3.250943E-01
  3.280375E-01
  3.317028E-01
  3.361478E-01
  3.352470E-01
  3.376810E-01
  3.332890E-01
  3.324784E-01
  3.269628E-01
  3.276683E-01
  3.256016E-01
  3.299853E-01
  3.302220E-01
  3.347647E-01
  3.331939E-01
  3.352799E-01
  3.321028E-01
  3.343336E-01
  3.328614E-01
  3.371417E-01
  3.365507E-01
  3.397962E-01
  3.365953E-01
  3.370357E-01
  3.321914E-01
  3.325337E-01
  3.287501E-01
  3.304296E-01
  3.278341E-01
  3.305569E-01
  3.290992E-01
  3.330323E-01
  3.323185E-01
  3.359431E-01
  3.336551E-01
  3.351671E-01
  3.314122E-01
  3.329303E-01
  3.305447E-01
  3.337097E-01
  3.320339E-01
  3.345308E-01
  3.314339E-01
  3.329856E-01
  3.303076E-01
  3.334249E-01
  3.324080E-01
  3.361801E-01
  3.343491E-01
  3.363947E-01
  3.328045E-01
  3.337055E-01
  3.298287E-01
  3.312277E-01
  3.286279E-01
  3.318041E-01
  3.308916E-01
  3.348738E-01
  3.333324E-01
  3.355910E-01
  3.321444E-01
  3.332645E-01
  3.297902E-01
  3.316359E-01
  3.292947E-01
  3.325104E-01
  3.286847E-01
  3.330118E-01
  3.325607E-01
  3.355317E-01
  3.324366E-01
  3.329151E-01
  3.288395E-01
  3.301706E-01
  3.282048E-01
  3.317035E-01
  3.309284E-01
  3.342639E-01
  3.322703E-01
  3.343210E-01
  3.319252E-01
  3.347949E-01
  3.339717E-01
  3.381637E-01
  3.373871E-01
  3.400392E-01
  3.365464E-01
  3.364022E-01
  3.311415E-01
  3.306936E-01
  3.265624E-01
  3.280355E-01
  3.260255E-01
  3.292775E-01
  3.284184E-01
  3.321791E-01
  3.312306E-01
  3.345187E-01
  3.328922E-01
  3.356166E-01
  3.337183E-01
  3.363863E-01
  3.343050E-01
  3.363307E-01
  3.331410E-01
  3.340277E-01
  3.303520E-01
  3.318452E-01
  3.298429E-01
  3.333704E-01
  3.327941E-01
  3.364601E-01
  3.346388E-01
  3.363951E-01
  3.328802E-01
  3.336808E-01
  3.300021E-01
  3.311383E-01
  3.281829E-01
  3.303526E-01
  3.286417E-01
  3.319341E-01
  3.307511E-01
  3.337320E-01
  3.314376E-01
  3.329319E-01
  3.293437E-01
  3.302376E-01
  3.271389E-01
  3.295957E-01
  3.314278E-01
  3.335080E-01
  3.325987E-01
  3.346952E-01
  3.326810E-01
  3.331094E-01
  3.299824E-01
  3.306582E-01
  3.291473E-01
  3.319202E-01
  3.318238E-01
  3.345934E-01
  3.331607E-01
  3.342763E-01
  3.321198E-01
  3.341060E-01
  3.340360E-01
  3.380222E-01
  3.383405E-01
  3.404844E-01
  3.373785E-01
  3.362227E-01
  3.315316E-01
  3.308958E-01
  3.282308E-01
  3.299314E-01
  3.291111E-01
  3.319702E-01
  3.318636E-01
  3.352580E-01
  3.353112E-01
  3.381064E-01
  3.366081E-01
  3.374620E-01
  3.346304E-01
  3.354484E-01
  3.336851E-01
  3.356606E-01
  3.341518E-01
  3.353118E-01
  3.327125E-01
  3.335696E-01
  3.319479E-01
  3.344916E-01
  3.341069E-01
  3.365790E-01
  3.348201E-01
  3.355223E-01
  3.325700E-01
  3.330159E-01
  3.305394E-01
  3.317680E-01
  3.301914E-01
  3.323034E-01
  3.313390E-01
  3.334646E-01
  3.318436E-01
  3.331058E-01
  3.310702E-01
  3.326459E-01
  3.312817E-01
  3.332140E-01
  3.316059E-01
  3.330698E-01
  3.277327E-01
  3.297863E-01
  3.303726E-01
  3.330586E-01
  3.331473E-01
  3.346196E-01
  3.334941E-01
  3.343600E-01
  3.333652E-01
  3.347040E-01
  3.339279E-01
  3.348766E-01
  3.332800E-01
  3.336562E-01
  3.324306E-01
  3.342456E-01
  3.349157E-01
  3.380188E-01
  3.384024E-01
  3.394568E-01
  3.367254E-01
  3.349317E-01
  3.308340E-01
  3.295535E-01
  3.275228E-01
  3.289295E-01
  3.292256E-01
  3.319033E-01
  3.322497E-01
  3.341906E-01
  3.336360E-01
  3.350273E-01
  3.344264E-01
  3.361537E-01
  3.359432E-01
  3.376851E-01
  3.367379E-01
  3.369749E-01
  3.342437E-01
  3.332262E-01
  3.304628E-01
  3.307094E-01
  3.299835E-01
  3.321286E-01
  3.323915E-01
  3.343905E-01
  3.337127E-01
  3.346621E-01
  3.333087E-01
  3.339815E-01
  3.324946E-01
  3.329968E-01
  3.314270E-01
  3.321645E-01
  3.312060E-01
  3.326794E-01
  3.321959E-01
  3.336414E-01
  3.326102E-01
  3.331541E-01
  3.311078E-01
  3.308109E-01
  3.284639E-01
  3.286921E-01
  3.298287E-01
  3.303995E-01
  3.306965E-01
  3.328613E-01
  3.336221E-01
  3.349505E-01
  3.342379E-01
  3.344909E-01
  3.337100E-01
  3.346723E-01
  3.345484E-01
  3.353538E-01
  3.341867E-01
  3.338096E-01
  3.323763E-01
  3.331990E-01
  3.340114E-01
  3.368428E-01
  3.379945E-01
  3.389386E-01
  3.367611E-01
  3.347120E-01
  3.314710E-01
  3.306578E-01
  3.301313E-01
  3.320769E-01
  3.332033E-01
  3.353490E-01
  3.356544E-01
  3.367682E-01
  3.363293E-01
  3.369549E-01
  3.360076E-01
  3.360651E-01
  3.347896E-01
  3.350152E-01
  3.342320E-01
  3.347341E-01
  3.336075E-01
  3.333149E-01
  3.316172E-01
  3.315676E-01
  3.309600E-01
  3.322352E-01
  3.324232E-01
  3.336409E-01
  3.332149E-01
  3.338671E-01
  3.332479E-01
  3.339331E-01
  3.332780E-01
  3.338481E-01
  3.332905E-01
  3.343406E-01
  3.343574E-01
  3.355090E-01
  3.348720E-01
  3.349932E-01
  3.336699E-01
  3.338248E-01
  3.329238E-01
  3.331910E-01
  3.317773E-01
  3.313260E-01
  3.262004E-01
  3.276659E-01
  3.288605E-01
  3.318710E-01
  3.334537E-01
  3.356931E-01
  3.357740E-01
  3.365038E-01
  3.356056E-01
  3.359440E-01
  3.348756E-01
  3.348632E-01
  3.332563E-01
  3.329662E-01
  3.318941E-01
  3.330543E-01
  3.338193E-01
  3.362648E-01
  3.369144E-01
  3.376524E-01
  3.356236E-01
  3.339343E-01
  3.308893E-01
  3.300414E-01
  3.293364E-01
  3.312808E-01
  3.325815E-01
  3.348791E-01
  3.348294E-01
  3.349701E-01
  3.332081E-01
  3.329446E-01
  3.321432E-01
  3.335287E-01
  3.341010E-01
  3.357712E-01
  3.352358E-01
  3.348417E-01
  3.322716E-01
  3.308688E-01
  3.287685E-01
  3.289544E-01
  3.287392E-01
  3.303085E-01
  3.306462E-01
  3.321603E-01
  3.322812E-01
  3.337025E-01
  3.337361E-01
  3.347579E-01
  3.339471E-01
  3.340038E-01
  3.327048E-01
  3.331450E-01
  3.329631E-01
  3.346274E-01
  3.350564E-01
  3.363411E-01
  3.354830E-01
  3.350157E-01
  3.324811E-01
  3.308706E-01
  3.280810E-01
  3.272487E-01
  3.291734E-01
  3.297843E-01
  3.299028E-01
  3.322733E-01
  3.331250E-01
  3.348679E-01
  3.341862E-01
  3.344931E-01
  3.332577E-01
  3.339215E-01
  3.332962E-01
  3.340500E-01
  3.327662E-01
  3.326372E-01
  3.311443E-01
  3.320267E-01
  3.325039E-01
  3.352686E-01
  3.362809E-01
  3.376476E-01
  3.358678E-01
  3.345460E-01
  3.316737E-01
  3.313672E-01
  3.310005E-01
  3.333308E-01
  3.344599E-01
  3.366065E-01
  3.362297E-01
  3.365504E-01
  3.349041E-01
  3.347664E-01
  3.332012E-01
  3.333081E-01
  3.320330E-01
  3.325018E-01
  3.315973E-01
  3.322382E-01
  3.311705E-01
  3.314578E-01
  3.302273E-01
  3.308204E-01
  3.303050E-01
  3.316361E-01
  3.314943E-01
  3.327743E-01
  3.323944E-01
  3.335033E-01
  3.329844E-01
  3.337718E-01
  3.327127E-01
  3.331107E-01
  3.323258E-01
  3.337649E-01
  3.342450E-01
  3.363159E-01
  3.362787E-01
  3.369790E-01
  3.355199E-01
  3.353935E-01
  3.337075E-01
  3.334757E-01
  3.314844E-01
  3.309276E-01
  3.269915E-01
  3.286365E-01
  3.291647E-01
  3.318232E-01
  3.325937E-01
  3.346752E-01
  3.342341E-01
  3.349604E-01
  3.335119E-01
  3.337766E-01
  3.322524E-01
  3.325224E-01
  3.309954E-01
  3.314603E-01
  3.306305E-01
  3.323222E-01
  3.328780E-01
  3.355048E-01
  3.359687E-01
  3.372960E-01
  3.355491E-01
  3.345621E-01
  3.313812E-01
  3.304902E-01
  3.289816E-01
  3.305903E-01
  3.312274E-01
  3.335670E-01
  3.331836E-01
  3.334755E-01
  3.313120E-01
  3.311300E-01
  3.299742E-01
  3.315483E-01
  3.318093E-01
  3.336265E-01
  3.327967E-01
  3.328105E-01
  3.304637E-01
  3.300155E-01
  3.284042E-01
  3.293710E-01
  3.291237E-01
  3.308847E-01
  3.307851E-01
  3.323383E-01
  3.319771E-01
  3.333003E-01
  3.325764E-01
  3.332606E-01
  3.317428E-01
  3.318865E-01
  3.305237E-01
  3.316264E-01
  3.316965E-01
  3.340699E-01
  3.346044E-01
  3.363399E-01
  3.352591E-01
  3.349489E-01
  3.320984E-01
  3.308532E-01
  3.281623E-01
  3.280112E-01
  3.315964E-01
  3.321181E-01
  3.314909E-01
  3.326845E-01
  3.324695E-01
  3.334184E-01
  3.323802E-01
  3.324655E-01
  3.310807E-01
  3.314649E-01
  3.306757E-01
  3.314429E-01
  3.306188E-01
  3.311965E-01
  3.305456E-01
  3.319912E-01
  3.327354E-01
  3.354444E-01
  3.364693E-01
  3.380084E-01
  3.366423E-01
  3.355452E-01
  3.324888E-01
  3.313474E-01
  3.297915E-01
  3.308316E-01
  3.311003E-01
  3.329115E-01
  3.328457E-01
  3.337577E-01
  3.328609E-01
  3.333095E-01
  3.322034E-01
  3.324625E-01
  3.311609E-01
  3.313951E-01
  3.303813E-01
  3.311186E-01
  3.305585E-01
  3.315078E-01
  3.309731E-01
  3.319678E-01
  3.316140E-01
  3.328082E-01
  3.324220E-01
  3.332341E-01
  3.322318E-01
  3.324472E-01
  3.310554E-01
  3.311509E-01
  3.299684E-01
  3.306923E-01
  3.305685E-01
  3.324927E-01
  3.331374E-01
  3.348913E-01
  3.343723E-01
  3.345557E-01
  3.328930E-01
  3.328726E-01
  3.318211E-01
  3.326077E-01
  3.319717E-01
  3.326138E-01
  3.308581E-01
  3.319514E-01
  3.318663E-01
  3.325487E-01
  3.323913E-01
  3.331551E-01
  3.328799E-01
  3.331654E-01
  3.321927E-01
  3.318530E-01
  3.305696E-01
  3.303413E-01
  3.296251E-01
  3.303779E-01
  3.308932E-01
  3.328094E-01
  3.340567E-01
  3.360656E-01
  3.367322E-01
  3.375570E-01
  3.364940E-01
  3.352500E-01
  3.323026E-01
  3.300946E-01
  3.276661E-01
  3.273305E-01
  3.272990E-01
  3.287538E-01
  3.291843E-01
  3.299481E-01
  3.294373E-01
  3.299511E-01
  3.301463E-01
  3.317645E-01
  3.325526E-01
  3.336756E-01
  3.330161E-01
  3.324963E-01
  3.308472E-01
  3.304003E-01
  3.297058E-01
  3.305207E-01
  3.308106E-01
  3.319942E-01
  3.320061E-01
  3.324776E-01
  3.316452E-01
  3.314258E-01
  3.302590E-01
  3.301489E-01
  3.295083E-01
  3.301756E-01
  3.303026E-01
  3.314614E-01
  3.316529E-01
  3.324781E-01
  3.320615E-01
  3.321384E-01
  3.309576E-01
  3.304617E-01
  3.292039E-01
  3.293128E-01
  3.291831E-01
  3.304168E-01
  3.364233E-01
  3.358966E-01
  3.347672E-01
  3.334597E-01
  3.325524E-01
  3.318761E-01
  3.314568E-01
  3.309589E-01
  3.305676E-01
  3.301560E-01
  3.299782E-01
  3.298660E-01
  3.300540E-01
  3.304290E-01
  3.312730E-01
  3.324091E-01
  3.339264E-01
  3.353861E-01
  3.366427E-01
  3.371264E-01
  3.367478E-01
  3.352651E-01
  3.331732E-01
  3.308540E-01
  3.291199E-01
  3.281527E-01
  3.281573E-01
  3.286764E-01
  3.295891E-01
  3.305169E-01
  3.315928E-01
  3.325333E-01
  3.333117E-01
  3.334664E-01
  3.331077E-01
  3.322646E-01
  3.315594E-01
  3.311359E-01
  3.312553E-01
  3.315607E-01
  3.320684E-01
  3.325179E-01
  3.330880E-01
  3.334546E-01
  3.335349E-01
  3.328710E-01
  3.316589E-01
  3.300515E-01
  3.287971E-01
  3.282015E-01
  3.286996E-01
  3.299907E-01
  3.318287E-01
  3.333561E-01
  3.341193E-01
  3.335725E-01
  3.320715E-01
  3.300636E-01
  3.286015E-01
  3.281927E-01
  3.292779E-01
  3.313488E-01
  3.338382E-01
  3.356629E-01
  3.356168E-01
  3.352767E-01
  3.348628E-01
  3.329749E-01
  3.324165E-01
  3.314458E-01
  3.319758E-01
  3.315240E-01
  3.317937E-01
  3.306206E-01
  3.302709E-01
  3.290765E-01
  3.294938E-01
  3.296602E-01
  3.314959E-01
  3.325040E-01
  3.342730E-01
  3.344903E-01
  3.353123E-01
  3.348256E-01
  3.350694E-01
  3.336866E-01
  3.325552E-01
  3.298201E-01
  3.281997E-01
  3.263315E-01
  3.265617E-01
  3.265848E-01
  3.279145E-01
  3.281371E-01
  3.293804E-01
  3.299176E-01
  3.319790E-01
  3.332005E-01
  3.350118E-01
  3.347528E-01
  3.343941E-01
  3.322907E-01
  3.312231E-01
  3.297295E-01
  3.301334E-01
  3.302570E-01
  3.317741E-01
  3.321039E-01
  3.328606E-01
  3.317491E-01
  3.309857E-01
  3.289781E-01
  3.284051E-01
  3.276976E-01
  3.290293E-01
  3.300242E-01
  3.320928E-01
  3.325046E-01
  3.329969E-01
  3.316169E-01
  3.308643E-01
  3.291009E-01
  3.286784E-01
  3.277588E-01
  3.286361E-01
  3.294191E-01
  3.319927E-01
  3.336485E-01
  3.398810E-01
  3.377060E-01
  3.366711E-01
  3.331834E-01
  3.323448E-01
  3.299737E-01
  3.303591E-01
  3.288689E-01
  3.297220E-01
  3.284638E-01
  3.295148E-01
  3.285573E-01
  3.300449E-01
  3.295896E-01
  3.314815E-01
  3.311421E-01
  3.328339E-01
  3.321216E-01
  3.335156E-01
  3.326676E-01
  3.339197E-01
  3.326456E-01
  3.331183E-01
  3.310046E-01
  3.310414E-01
  3.291852E-01
  3.300197E-01
  3.291402E-01
  3.308470E-01
  3.307069E-01
  3.330923E-01
  3.334097E-01
  3.356503E-01
  3.348872E-01
  3.353405E-01
  3.328443E-01
  3.324595E-01
  3.303357E-01
  3.311040E-01
  3.302556E-01
  3.319818E-01
  3.317310E-01
  3.337430E-01
  3.332735E-01
  3.342921E-01
  3.320735E-01
  3.312195E-01
  3.279877E-01
  3.276178E-01
  3.263430E-01
  3.286372E-01
  3.297014E-01
  3.331387E-01
  3.336966E-01
  3.352387E-01
  3.332712E-01
  3.326749E-01
  3.297897E-01
  3.298107E-01
  3.289003E-01
  3.315960E-01
  3.331463E-01
  3.371512E-01
  3.381669E-01
  3.366489E-01
  3.348406E-01
  3.352366E-01
  3.319909E-01
  3.321220E-01
  3.296803E-01
  3.309297E-01
  3.292326E-01
  3.305672E-01
  3.285256E-01
  3.295738E-01
  3.277427E-01
  3.295969E-01
  3.288585E-01
  3.315039E-01
  3.307013E-01
  3.324045E-01
  3.303648E-01
  3.314051E-01
  3.297290E-01
  3.317544E-01
  3.307572E-01
  3.324953E-01
  3.304111E-01
  3.311444E-01
  3.289313E-01
  3.304193E-01
  3.291932E-01
  3.312237E-01
  3.300198E-01
  3.320761E-01
  3.313771E-01
  3.342984E-01
  3.340659E-01
  3.363679E-01
  3.343560E-01
  3.344596E-01
  3.308926E-01
  3.307475E-01
  3.283086E-01
  3.300934E-01
  3.296051E-01
  3.326214E-01
  3.321220E-01
  3.338675E-01
  3.313127E-01
  3.311405E-01
  3.277404E-01
  3.281698E-01
  3.265995E-01
  3.292554E-01
  3.293615E-01
  3.325182E-01
  3.318833E-01
  3.337215E-01
  3.320058E-01
  3.334721E-01
  3.319058E-01
  3.335132E-01
  3.318402E-01
  3.333873E-01
  3.321686E-01
  3.346916E-01
  3.342864E-01
  3.382823E-01
  3.353555E-01
  3.357300E-01
  3.320270E-01
  3.322977E-01
  3.290226E-01
  3.299078E-01
  3.272774E-01
  3.287844E-01
  3.268113E-01
  3.290101E-01
  3.276994E-01
  3.303954E-01
  3.292289E-01
  3.316055E-01
  3.296720E-01
  3.311495E-01
  3.286510E-01
  3.302516E-01
  3.285768E-01
  3.312701E-01
  3.303789E-01
  3.332125E-01
  3.318741E-01
  3.341050E-01
  3.323583E-01
  3.344409E-01
  3.326679E-01
  3.347974E-01
  3.332603E-01
  3.358708E-01
  3.347438E-01
  3.371322E-01
  3.347871E-01
  3.353296E-01
  3.314559E-01
  3.316273E-01
  3.287338E-01
  3.305949E-01
  3.293623E-01
  3.324200E-01
  3.318718E-01
  3.351263E-01
  3.340233E-01
  3.357957E-01
  3.325056E-01
  3.322412E-01
  3.281031E-01
  3.285803E-01
  3.264828E-01
  3.293705E-01
  3.291633E-01
  3.329478E-01
  3.326021E-01
  3.356325E-01
  3.343409E-01
  3.365840E-01
  3.347587E-01
  3.367230E-01
  3.348605E-01
  3.370571E-01
  3.356257E-01
  3.381647E-01
  3.365850E-01
  3.333351E-01
  3.320046E-01
  3.336953E-01
  3.315225E-01
  3.325234E-01
  3.302117E-01
  3.314620E-01
  3.294183E-01
  3.306940E-01
  3.285216E-01
  3.298077E-01
  3.280591E-01
  3.301625E-01
  3.292617E-01
  3.317195E-01
  3.303018E-01
  3.315568E-01
  3.289667E-01
  3.298954E-01
  3.281476E-01
  3.305594E-01
  3.299749E-01
  3.325775E-01
  3.313099E-01
  3.331205E-01
  3.315823E-01
  3.336280E-01
  3.322737E-01
  3.340237E-01
  3.320538E-01
  3.334713E-01
  3.318593E-01
  3.340727E-01
  3.329620E-01
  3.348064E-01
  3.324784E-01
  3.328751E-01
  3.296868E-01
  3.302788E-01
  3.283770E-01
  3.308762E-01
  3.307835E-01
  3.342692E-01
  3.338016E-01
  3.356441E-01
  3.329257E-01
  3.329425E-01
  3.296375E-01
  3.303667E-01