# vtk DataFile Version 2.0
title
ASCII
DATASET STRUCTURED_GRID
DIMENSIONS   64   64    1
POINTS   4096  float
  0.000000E+00  0.000000E+00  0.000000E+00
  0.000000E+00  3.906250E-01  0.000000E+00
  0.000000E+00  7.812500E-01  0.000000E+00
  0.000000E+00  1.171875E+00  0.000000E+00
  0.000000E+00  1.562500E+00  0.000000E+00
  0.000000E+00  1.953125E+00  0.000000E+00
  0.000000E+00  2.343750E+00  0.000000E+00
  0.000000E+00  2.734375E+00  0.000000E+00
  0.000000E+00  3.125000E+00  0.000000E+00
  0.000000E+00  3.515625E+00  0.000000E+00
  0.000000E+00  3.906250E+00  0.000000E+00
  0.000000E+00  4.296875E+00  0.000000E+00
  0.000000E+00  4.687500E+00  0.000000E+00
  0.000000E+00  5.078125E+00  0.000000E+00
  0.000000E+00  5.468750E+00  0.000000E+00
  0.000000E+00  5.859375E+00  0.000000E+00
  0.000000E+00  6.250000E+00  0.000000E+00
  0.000000E+00  6.640625E+00  0.000000E+00
  0.000000E+00  7.031250E+00  0.000000E+00
  0.000000E+00  7.421875E+00  0.000000E+00
  0.000000E+00  7.812500E+00  0.000000E+00
  0.000000E+00  8.203125E+00  0.000000E+00
  0.000000E+00  8.593750E+00  0.000000E+00
  0.000000E+00  8.984375E+00  0.000000E+00
  0.000000E+00  9.375000E+00  0.000000E+00
  0.000000E+00  9.765625E+00  0.000000E+00
  0.000000E+00  1.015625E+01  0.000000E+00
  0.000000E+00  1.054688E+01  0.000000E+00
  0.000000E+00  1.093750E+01  0.000000E+00
  0.000000E+00  1.132812E+01  0.000000E+00
  0.000000E+00  1.171875E+01  0.000000E+00
  0.000000E+00  1.210938E+01  0.000000E+00
  0.000000E+00  1.250000E+01  0.000000E+00
  0.000000E+00  1.289062E+01  0.000000E+00
  0.000000E+00  1.328125E+01  0.000000E+00
  0.000000E+00  1.367188E+01  0.000000E+00
  0.000000E+00  1.406250E+01  0.000000E+00
  0.000000E+00  1.445312E+01  0.000000E+00
  0.000000E+00  1.484375E+01  0.000000E+00
  0.000000E+00  1.523438E+01  0.000000E+00
  0.000000E+00  1.562500E+01  0.000000E+00
  0.000000E+00  1.601562E+01  0.000000E+00
  0.000000E+00  1.640625E+01  0.000000E+00
  0.000000E+00  1.679688E+01  0.000000E+00
  0.000000E+00  1.718750E+01  0.000000E+00
  0.000000E+00  1.757812E+01  0.000000E+00
  0.000000E+00  1.796875E+01  0.000000E+00
  0.000000E+00  1.835938E+01  0.000000E+00
  0.000000E+00  1.875000E+01  0.000000E+00
  0.000000E+00  1.914062E+01  0.000000E+00
  0.000000E+00  1.953125E+01  0.000000E+00
  0.000000E+00  1.992188E+01  0.000000E+00
  0.000000E+00  2.031250E+01  0.000000E+00
  0.000000E+00  2.070312E+01  0.000000E+00
  0.000000E+00  2.109375E+01  0.000000E+00
  0.000000E+00  2.148438E+01  0.000000E+00
  0.000000E+00  2.187500E+01  0.000000E+00
  0.000000E+00  2.226562E+01  0.000000E+00
  0.000000E+00  2.265625E+01  0.000000E+00
  0.000000E+00  2.304688E+01  0.000000E+00
  0.000000E+00  2.343750E+01  0.000000E+00
  0.000000E+00  2.382812E+01  0.000000E+00
  0.000000E+00  2.421875E+01  0.000000E+00
  0.000000E+00  2.460938E+01  0.000000E+00
  3.906250E-01  0.000000E+00  0.000000E+00
  3.906250E-01  3.906250E-01  0.000000E+00
  3.906250E-01  7.812500E-01  0.000000E+00
  3.906250E-01  1.171875E+00  0.000000E+00
  3.906250E-01  1.562500E+00  0.000000E+00
  3.906250E-01  1.953125E+00  0.000000E+00
  3.906250E-01  2.343750E+00  0.000000E+00
  3.906250E-01  2.734375E+00  0.000000E+00
  3.906250E-01  3.125000E+00  0.000000E+00
  3.906250E-01  3.515625E+00  0.000000E+00
  3.906250E-01  3.906250E+00  0.000000E+00
  3.906250E-01  4.296875E+00  0.000000E+00
  3.906250E-01  4.687500E+00  0.000000E+00
  3.906250E-01  5.078125E+00  0.000000E+00
  3.906250E-01  5.468750E+00  0.000000E+00
  3.906250E-01  5.859375E+00  0.000000E+00
  3.906250E-01  6.250000E+00  0.000000E+00
  3.906250E-01  6.640625E+00  0.000000E+00
  3.906250E-01  7.031250E+00  0.000000E+00
  3.906250E-01  7.421875E+00  0.000000E+00
  3.906250E-01  7.812500E+00  0.000000E+00
  3.906250E-01  8.203125E+00  0.000000E+00
  3.906250E-01  8.593750E+00  0.000000E+00
  3.906250E-01  8.984375E+00  0.000000E+00
  3.906250E-01  9.375000E+00  0.000000E+00
  3.906250E-01  9.765625E+00  0.000000E+00
  3.906250E-01  1.015625E+01  0.000000E+00
  3.906250E-01  1.054688E+01  0.000000E+00
  3.906250E-01  1.093750E+01  0.000000E+00
  3.906250E-01  1.132812E+01  0.000000E+00
  3.906250E-01  1.171875E+01  0.000000E+00
  3.906250E-01  1.210938E+01  0.000000E+00
  3.906250E-01  1.250000E+01  0.000000E+00
  3.906250E-01  1.289062E+01  0.000000E+00
  3.906250E-01  1.328125E+01  0.000000E+00
  3.906250E-01  1.367188E+01  0.000000E+00
  3.906250E-01  1.406250E+01  0.000000E+00
  3.906250E-01  1.445312E+01  0.000000E+00
  3.906250E-01  1.484375E+01  0.000000E+00
  3.906250E-01  1.523438E+01  0.000000E+00
  3.906250E-01  1.562500E+01  0.000000E+00
  3.906250E-01  1.601562E+01  0.000000E+00
  3.906250E-01  1.640625E+01  0.000000E+00
  3.906250E-01  1.679688E+01  0.000000E+00
  3.906250E-01  1.718750E+01  0.000000E+00
  3.906250E-01  1.757812E+01  0.000000E+00
  3.906250E-01  1.796875E+01  0.000000E+00
  3.906250E-01  1.835938E+01  0.000000E+00
  3.906250E-01  1.875000E+01  0.000000E+00
  3.906250E-01  1.914062E+01  0.000000E+00
  3.906250E-01  1.953125E+01  0.000000E+00
  3.906250E-01  1.992188E+01  0.000000E+00
  3.906250E-01  2.031250E+01  0.000000E+00
  3.906250E-01  2.070312E+01  0.000000E+00
  3.906250E-01  2.109375E+01  0.000000E+00
  3.906250E-01  2.148438E+01  0.000000E+00
  3.906250E-01  2.187500E+01  0.000000E+00
  3.906250E-01  2.226562E+01  0.000000E+00
  3.906250E-01  2.265625E+01  0.000000E+00
  3.906250E-01  2.304688E+01  0.000000E+00
  3.906250E-01  2.343750E+01  0.000000E+00
  3.906250E-01  2.382812E+01  0.000000E+00
  3.906250E-01  2.421875E+01  0.000000E+00
  3.906250E-01  2.460938E+01  0.000000E+00
  7.812500E-01  0.000000E+00  0.000000E+00
  7.812500E-01  3.906250E-01  0.000000E+00
  7.812500E-01  7.812500E-01  0.000000E+00
  7.812500E-01  1.171875E+00  0.000000E+00
  7.812500E-01  1.562500E+00  0.000000E+00
  7.812500E-01  1.953125E+00  0.000000E+00
  7.812500E-01  2.343750E+00  0.000000E+00
  7.812500E-01  2.734375E+00  0.000000E+00
  7.812500E-01  3.125000E+00  0.000000E+00
  7.812500E-01  3.515625E+00  0.000000E+00
  7.812500E-01  3.906250E+00  0.000000E+00
  7.812500E-01  4.296875E+00  0.000000E+00
  7.812500E-01  4.687500E+00  0.000000E+00
  7.812500E-01  5.078125E+00  0.000000E+00
  7.812500E-01  5.468750E+00  0.000000E+00
  7.812500E-01  5.859375E+00  0.000000E+00
  7.812500E-01  6.250000E+00  0.000000E+00
  7.812500E-01  6.640625E+00  0.000000E+00
  7.812500E-01  7.031250E+00  0.000000E+00
  7.812500E-01  7.421875E+00  0.000000E+00
  7.812500E-01  7.812500E+00  0.000000E+00
  7.812500E-01  8.203125E+00  0.000000E+00
  7.812500E-01  8.593750E+00  0.000000E+00
  7.812500E-01  8.984375E+00  0.000000E+00
  7.812500E-01  9.375000E+00  0.000000E+00
  7.812500E-01  9.765625E+00  0.000000E+00
  7.812500E-01  1.015625E+01  0.000000E+00
  7.812500E-01  1.054688E+01  0.000000E+00
  7.812500E-01  1.093750E+01  0.000000E+00
  7.812500E-01  1.132812E+01  0.000000E+00
  7.812500E-01  1.171875E+01  0.000000E+00
  7.812500E-01  1.210938E+01  0.000000E+00
  7.812500E-01  1.250000E+01  0.000000E+00
  7.812500E-01  1.289062E+01  0.000000E+00
  7.812500E-01  1.328125E+01  0.000000E+00
  7.812500E-01  1.367188E+01  0.000000E+00
  7.812500E-01  1.406250E+01  0.000000E+00
  7.812500E-01  1.445312E+01  0.000000E+00
  7.812500E-01  1.484375E+01  0.000000E+00
  7.812500E-01  1.523438E+01  0.000000E+00
  7.812500E-01  1.562500E+01  0.000000E+00
  7.812500E-01  1.601562E+01  0.000000E+00
  7.812500E-01  1.640625E+01  0.000000E+00
  7.812500E-01  1.679688E+01  0.000000E+00
  7.812500E-01  1.718750E+01  0.000000E+00
  7.812500E-01  1.757812E+01  0.000000E+00
  7.812500E-01  1.796875E+01  0.000000E+00
  7.812500E-01  1.835938E+01  0.000000E+00
  7.812500E-01  1.875000E+01  0.000000E+00
  7.812500E-01  1.914062E+01  0.000000E+00
  7.812500E-01  1.953125E+01  0.000000E+00
  7.812500E-01  1.992188E+01  0.000000E+00
  7.812500E-01  2.031250E+01  0.000000E+00
  7.812500E-01  2.070312E+01  0.000000E+00
  7.812500E-01  2.109375E+01  0.000000E+00
  7.812500E-01  2.148438E+01  0.000000E+00
  7.812500E-01  2.187500E+01  0.000000E+00
  7.812500E-01  2.226562E+01  0.000000E+00
  7.812500E-01  2.265625E+01  0.000000E+00
  7.812500E-01  2.304688E+01  0.000000E+00
  7.812500E-01  2.343750E+01  0.000000E+00
  7.812500E-01  2.382812E+01  0.000000E+00
  7.812500E-01  2.421875E+01  0.000000E+00
  7.812500E-01  2.460938E+01  0.000000E+00
  1.171875E+00  0.000000E+00  0.000000E+00
  1.171875E+00  3.906250E-01  0.000000E+00
  1.171875E+00  7.812500E-01  0.000000E+00
  1.171875E+00  1.171875E+00  0.000000E+00
  1.171875E+00  1.562500E+00  0.000000E+00
  1.171875E+00  1.953125E+00  0.000000E+00
  1.171875E+00  2.343750E+00  0.000000E+00
  1.171875E+00  2.734375E+00  0.000000E+00
  1.171875E+00  3.125000E+00  0.000000E+00
  1.171875E+00  3.515625E+00  0.000000E+00
  1.171875E+00  3.906250E+00  0.000000E+00
  1.171875E+00  4.296875E+00  0.000000E+00
  1.171875E+00  4.687500E+00  0.000000E+00
  1.171875E+00  5.078125E+00  0.000000E+00
  1.171875E+00  5.468750E+00  0.000000E+00
  1.171875E+00  5.859375E+00  0.000000E+00
  1.171875E+00  6.250000E+00  0.000000E+00
  1.171875E+00  6.640625E+00  0.000000E+00
  1.171875E+00  7.031250E+00  0.000000E+00
  1.171875E+00  7.421875E+00  0.000000E+00
  1.171875E+00  7.812500E+00  0.000000E+00
  1.171875E+00  8.203125E+00  0.000000E+00
  1.171875E+00  8.593750E+00  0.000000E+00
  1.171875E+00  8.984375E+00  0.000000E+00
  1.171875E+00  9.375000E+00  0.000000E+00
  1.171875E+00  9.765625E+00  0.000000E+00
  1.171875E+00  1.015625E+01  0.000000E+00
  1.171875E+00  1.054688E+01  0.000000E+00
  1.171875E+00  1.093750E+01  0.000000E+00
  1.171875E+00  1.132812E+01  0.000000E+00
  1.171875E+00  1.171875E+01  0.000000E+00
  1.171875E+00  1.210938E+01  0.000000E+00
  1.171875E+00  1.250000E+01  0.000000E+00
  1.171875E+00  1.289062E+01  0.000000E+00
  1.171875E+00  1.328125E+01  0.000000E+00
  1.171875E+00  1.367188E+01  0.000000E+00
  1.171875E+00  1.406250E+01  0.000000E+00
  1.171875E+00  1.445312E+01  0.000000E+00
[...]
POINT_DATA   4096
SCALARS CON  float  1
LOOKUP_TABLE default
  3.493954E-01
  3.493307E-01
  3.536712E-01
  3.513302E-01
  3.525910E-01
  3.483081E-01
  3.498459E-01
  3.475511E-01
  3.510025E-01
  3.490664E-01
  3.512265E-01
  3.474663E-01
  3.486805E-01
  3.455586E-01
  3.485844E-01
  3.474755E-01
  3.516891E-01
  3.502884E-01
  3.529030E-01
  3.493148E-01
  3.501318E-01
  3.457255E-01
  3.465352E-01
  3.425813E-01
  3.440516E-01
  3.412123E-01
  3.444013E-01
  3.435382E-01
  3.480461E-01
  3.469083E-01
  3.496714E-01
  3.464546E-01
  3.482876E-01
  3.458149E-01
  3.491451E-01
  3.474497E-01
  3.500353E-01
  3.465292E-01
  3.474703E-01
  3.433974E-01
  3.447737E-01
  3.415325E-01
  3.435446E-01
  3.407461E-01
  3.434260E-01
  3.420288E-01
  3.468791E-01
  3.476223E-01
  3.532530E-01
  3.521041E-01
  3.535203E-01
  3.478999E-01
  3.473105E-01
  3.436813E-01
  3.480193E-01
  3.495831E-01
  3.564766E-01
  3.562746E-01
  3.582155E-01
  3.526426E-01
  3.514054E-01
  3.458525E-01
  3.469895E-01
  3.449386E-01
  3.510222E-01
  3.518583E-01
  3.557851E-01
  3.542338E-01
  3.541177E-01
  3.491294E-01
  3.482043E-01
  3.453306E-01
  3.477701E-01
  3.474690E-01
  3.505550E-01
  3.491351E-01
  3.504301E-01
  3.476815E-01
  3.487722E-01
  3.470375E-01
  3.497968E-01
  3.493462E-01
  3.520503E-01
  3.499723E-01
  3.503794E-01
  3.466969E-01
  3.469309E-01
  3.442708E-01
  3.458005E-01
  3.441015E-01
  3.462674E-01
  3.452470E-01
  3.482481E-01
  3.477805E-01
  3.505221E-01
  3.488193E-01
  3.498858E-01
  3.468613E-01
  3.474554E-01
  3.448386E-01
  3.463333E-01
  3.446040E-01
  3.464941E-01
  3.444112E-01
  3.453240E-01
  3.422061E-01
  3.426748E-01
  3.401176E-01
  3.420674E-01
  3.416246E-01
  3.459195E-01
  3.473685E-01
  3.521397E-01
  3.516783E-01
  3.525914E-01
  3.483640E-01
  3.481569E-01
  3.465803E-01
  3.513025E-01
  3.538733E-01
  3.592385E-01
  3.582052E-01
  3.579347E-01
  3.524848E-01
  3.509122E-01
  3.470004E-01
  3.481923E-01
  3.472046E-01
  3.458296E-01
  3.500340E-01
  3.543726E-01
  3.550621E-01
  3.537671E-01
  3.498490E-01
  3.473456E-01
  3.456285E-01
  3.467571E-01
  3.478738E-01
  3.498417E-01
  3.499451E-01
  3.501024E-01
  3.487838E-01
  3.486217E-01
  3.481008E-01
  3.492521E-01
  3.497020E-01
  3.508344E-01
  3.501958E-01
  3.497284E-01
  3.477616E-01
  3.466980E-01
  3.448483E-01
  3.443284E-01
  3.432632E-01
  3.437011E-01
  3.436411E-01
  3.448090E-01
  3.448536E-01
  3.455097E-01
  3.449074E-01
  3.454189E-01
  3.453837E-01
  3.466965E-01
  3.469062E-01
  3.474882E-01
  3.462930E-01
  3.455030E-01
  3.434642E-01
  3.423834E-01
  3.404592E-01
  3.398838E-01
  3.390346E-01
  3.402105E-01
  3.416396E-01
  3.451196E-01
  3.480586E-01
  3.513705E-01
  3.519645E-01
  3.514263E-01
  3.485230E-01
  3.469241E-01
  3.462855E-01
  3.492073E-01
  3.528531E-01
  3.571755E-01
  3.580554E-01
  3.566415E-01
  3.517090E-01
  3.470584E-01
  3.424958E-01
  3.412300E-01
  3.418006E-01
  3.469326E-01
  3.517646E-01
  3.540138E-01
  3.556141E-01
  3.521990E-01
  3.487184E-01
  3.436712E-01
  3.425348E-01
  3.421745E-01
  3.455355E-01
  3.475674E-01
  3.506153E-01
  3.502413E-01
  3.503106E-01
  3.479719E-01
  3.480206E-01
  3.474371E-01
  3.497615E-01
  3.503869E-01
  3.519996E-01
  3.504472E-01
  3.498615E-01
  3.473270E-01
  3.471053E-01
  3.455207E-01
  3.459642E-01
  3.445697E-01
  3.451696E-01
  3.444131E-01
  3.461005E-01
  3.462379E-01
  3.478946E-01
  3.468766E-01
  3.468768E-01
  3.447227E-01
  3.448174E-01
  3.439154E-01
  3.455514E-01
  3.453772E-01
  3.463323E-01
  3.444374E-01
  3.438054E-01
  3.416230E-01
  3.422822E-01
  3.423055E-01
  3.450330E-01
  3.462519E-01
  3.491281E-01
  3.494377E-01
  3.504395E-01
  3.483680E-01
  3.476259E-01
  3.457806E-01
  3.475899E-01
  3.494379E-01
  3.538330E-01
  3.552097E-01
  3.559805E-01
  3.524674E-01
  3.496703E-01
  3.453375E-01
  3.440961E-01
  3.426678E-01
  3.448680E-01
  3.429413E-01
  3.494637E-01
  3.508369E-01
  3.538863E-01
  3.496107E-01
  3.479454E-01
  3.423878E-01
  3.429351E-01
  3.414710E-01
  3.457469E-01
  3.461132E-01
  3.499996E-01
  3.483490E-01
  3.499739E-01
  3.470710E-01
  3.489785E-01
  3.475180E-01
  3.509856E-01
  3.501443E-01
  3.528551E-01
  3.501441E-01
  3.507489E-01
  3.465450E-01
  3.466003E-01
  3.427691E-01
  3.437475E-01
  3.411194E-01
  3.432997E-01
  3.416891E-01
  3.445471E-01
  3.431758E-01
  3.459195E-01
  3.442588E-01
  3.468253E-01
  3.452039E-01
  3.478731E-01
  3.461129E-01
  3.482093E-01
  3.454757E-01
  3.464622E-01
  3.429075E-01
  3.438206E-01
  3.412814E-01
  3.440770E-01
  3.436031E-01
  3.477868E-01
  3.474248E-01
  3.505791E-01
  3.484915E-01
  3.497660E-01
  3.460737E-01
  3.464718E-01
  3.432101E-01
  3.454898E-01
  3.450460E-01
  3.498139E-01
  3.500430E-01
  3.530586E-01
  3.496637E-01
  3.488187E-01
  3.430157E-01
  3.420548E-01
  3.386019E-01
  3.417520E-01
  3.459281E-01
  3.507566E-01
  3.499698E-01
  3.526548E-01
  3.478055E-01
  3.466510E-01
  3.405247E-01
  3.412418E-01
  3.391787E-01
  3.440977E-01
  3.445581E-01
  3.495311E-01
  3.478215E-01
  3.498936E-01
  3.462635E-01
  3.484628E-01
  3.468461E-01
  3.515348E-01
  3.510753E-01
  3.546643E-01
  3.512514E-01
  3.516864E-01
  3.465048E-01
  3.469495E-01
  3.430098E-01
  3.448586E-01
  3.420128E-01
  3.447717E-01
  3.430855E-01
  3.473102E-01
  3.467129E-01
  3.507742E-01
  3.483470E-01
  3.497736E-01
  3.454698E-01
  3.469209E-01
  3.444480E-01
  3.481220E-01
  3.466355E-01
  3.494292E-01
  3.459879E-01
  3.474287E-01
  3.444828E-01
  3.479892E-01
  3.472034E-01
  3.514198E-01
  3.493452E-01
  3.512202E-01
  3.470865E-01
  3.479239E-01
  3.437785E-01
  3.452921E-01
  3.425032E-01
  3.459121E-01
  3.449986E-01
  3.493253E-01
  3.476722E-01
  3.500239E-01
  3.463127E-01
  3.476136E-01
  3.440801E-01
  3.461754E-01
  3.436192E-01
  3.468967E-01
  3.431321E-01
  3.476718E-01
  3.472405E-01
  3.502694E-01
  3.468365E-01
  3.470820E-01
  3.426679E-01
  3.440316E-01
  3.420907E-01
  3.458979E-01
  3.452295E-01
  3.487555E-01
  3.466164E-01
  3.486238E-01
  3.460210E-01
  3.489984E-01
  3.482360E-01
  3.527480E-01
  3.520662E-01
  3.548986E-01
  3.512650E-01
  3.510689E-01
  3.454976E-01
  3.449187E-01
  3.405225E-01
  3.420249E-01
  3.399672E-01
  3.434408E-01
  3.426637E-01
  3.467243E-01
  3.458711E-01
  3.493585E-01
  3.475841E-01
  3.502326E-01
  3.480666E-01
  3.507785E-01
  3.486972E-01
  3.509733E-01
  3.477750E-01
  3.487028E-01
  3.447650E-01
  3.462175E-01
  3.441658E-01
  3.480583E-01
  3.477446E-01
  3.517123E-01
  3.496693E-01
  3.511410E-01
  3.471243E-01
  3.477867E-01
  3.439790E-01
  3.452603E-01
  3.422366E-01
  3.444748E-01
  3.426286E-01
  3.460045E-01
  3.447708E-01
  3.479584E-01
  3.457474E-01
  3.475397E-01
  3.439978E-01
  3.450016E-01
  3.417018E-01
  3.441428E-01
  3.459425E-01
  3.478664E-01
  3.470400E-01
  3.492489E-01
  3.472871E-01
  3.475779E-01
  3.442846E-01
  3.448124E-01
  3.433272E-01
  3.462065E-01
  3.462957E-01
  3.491418E-01
  3.476798E-01
  3.486006E-01
  3.462839E-01
  3.482174E-01
  3.483652E-01
  3.526846E-01
  3.533355E-01
  3.555433E-01
  3.522620E-01
  3.507310E-01
  3.457262E-01
  3.448878E-01
  3.422317E-01
  3.439962E-01
  3.432766E-01
  3.461570E-01
  3.461380E-01
  3.497054E-01
  3.500959E-01
  3.531525E-01
  3.517106E-01
  3.522936E-01
  3.491242E-01
  3.497294E-01
  3.480928E-01
  3.503392E-01
  3.490638E-01
  3.501523E-01
  3.472898E-01
  3.478534E-01
  3.462280E-01
  3.490171E-01
  3.489990E-01
  3.515903E-01
  3.496578E-01
  3.499762E-01
  3.467720E-01
  3.471408E-01
  3.447639E-01
  3.460456E-01
  3.445104E-01
  3.466225E-01
  3.457169E-01
  3.478121E-01
  3.460849E-01
  3.471501E-01
  3.450909E-01
  3.468613E-01
  3.459140E-01
  3.481608E-01
  3.466252E-01
  3.478519E-01
  3.420587E-01
  3.439920E-01
  3.447796E-01
  3.475220E-01
  3.478516E-01
  3.492899E-01
  3.482605E-01
  3.489817E-01
  3.480616E-01
  3.493108E-01
  3.486600E-01
  3.494709E-01
  3.478445E-01
  3.479430E-01
  3.467217E-01
  3.485035E-01
  3.494980E-01
  3.527567E-01
  3.534025E-01
  3.543402E-01
  3.515408E-01
  3.493873E-01
  3.451322E-01
  3.435669E-01
  3.415977E-01
  3.430180E-01
  3.436178E-01
  3.463713E-01
  3.469043E-01
  3.487536E-01
  3.482963E-01
  3.495881E-01
  3.490884E-01
  3.507171E-01
  3.506643E-01
  3.524260E-01
  3.517057E-01
  3.518524E-01
  3.490684E-01
  3.476881E-01
  3.447977E-01
  3.448618E-01
  3.443267E-01
  3.465433E-01
  3.470294E-01
  3.488974E-01
  3.481660E-01
  3.488660E-01
  3.476121E-01
  3.483319E-01
  3.471360E-01
  3.476365E-01
  3.461483E-01
  3.467046E-01
  3.457722E-01
  3.470763E-01
  3.466140E-01
  3.478799E-01
  3.469413E-01
  3.474739E-01
  3.456712E-01
  3.453540E-01
  3.430585E-01
  3.430429E-01
  3.439655E-01
  3.443188E-01
  3.448786E-01
  3.472761E-01
  3.484686E-01
  3.498427E-01
  3.491928E-01
  3.492059E-01
  3.484467E-01
  3.493366E-01
  3.494296E-01
  3.501921E-01
  3.490410E-01
  3.483173E-01
  3.467314E-01
  3.473429E-01
  3.484004E-01
  3.514293E-01
  3.529519E-01
  3.538175E-01
  3.515073E-01
  3.489901E-01
  3.455915E-01
  3.446523E-01
  3.444568E-01
  3.466248E-01
  3.480864E-01
  3.501260E-01
  3.503523E-01
  3.511668E-01
  3.507855E-01
  3.513846E-01
  3.506261E-01
  3.505704E-01
  3.493544E-01
  3.494948E-01
  3.489374E-01
  3.494461E-01
  3.483968E-01
  3.477995E-01
  3.459580E-01
  3.456647E-01
  3.452087E-01
  3.465207E-01
  3.468878E-01
  3.479131E-01
  3.474395E-01
  3.479549E-01
  3.476364E-01
  3.485234E-01
  3.481791E-01
  3.486361E-01
  3.480714E-01
  3.489830E-01
  3.492073E-01
  3.503399E-01
  3.497031E-01
  3.494198E-01
  3.479221E-01
  3.479181E-01
  3.473089E-01
  3.476866E-01
  3.464019E-01
  3.456328E-01
  3.401951E-01
  3.416692E-01
  3.430786E-01
  3.463063E-01
  3.481715E-01
  3.505128E-01
  3.506299E-01
  3.512294E-01
  3.502958E-01
  3.506138E-01
  3.496656E-01
  3.496480E-01
  3.479732E-01
  3.474267E-01
  3.461917E-01
  3.472513E-01
  3.481544E-01
  3.507387E-01
  3.515617E-01
  3.522690E-01
  3.501550E-01
  3.482349E-01
  3.450678E-01
  3.441540E-01
  3.436566E-01
  3.458952E-01
  3.475744E-01
  3.499828E-01
  3.498258E-01
  3.495705E-01
  3.474714E-01
  3.469418E-01
  3.461648E-01
  3.476861E-01
  3.485820E-01
  3.504819E-01
  3.500911E-01
  3.495261E-01
  3.466917E-01
  3.449622E-01
  3.427932E-01
  3.430414E-01
  3.430507E-01
  3.446868E-01
  3.450074E-01
  3.463407E-01
  3.464359E-01
  3.479527E-01
  3.483259E-01
  3.496019E-01
  3.489293E-01
  3.488176E-01
  3.473308E-01
  3.475984E-01
  3.474988E-01
  3.492791E-01
  3.498740E-01
  3.511368E-01
  3.502397E-01
  3.496237E-01
  3.470131E-01
  3.452293E-01
  3.423129E-01
  3.412858E-01
  3.431959E-01
  3.437773E-01
  3.440106E-01
  3.467290E-01
  3.477983E-01
  3.496544E-01
  3.487848E-01
  3.489149E-01
  3.475103E-01
  3.482848E-01
  3.478176E-01
  3.487928E-01
  3.474593E-01
  3.471626E-01
  3.453257E-01
  3.460557E-01
  3.465217E-01
  3.495681E-01
  3.508111E-01
  3.523408E-01
  3.503932E-01
  3.488463E-01
  3.457126E-01
  3.454594E-01
  3.453218E-01
  3.481095E-01
  3.495197E-01
  3.517668E-01
  3.511140E-01
  3.511342E-01
  3.491834E-01
  3.489947E-01
  3.473924E-01
  3.475645E-01
  3.462579E-01
  3.468106E-01
  3.459331E-01
  3.466675E-01
  3.455197E-01
  3.457441E-01
  3.443766E-01
  3.450220E-01
  3.445704E-01
  3.460618E-01
  3.458993E-01
  3.471613E-01
  3.467065E-01
  3.479789E-01
  3.476532E-01
  3.486573E-01
  3.474771E-01
  3.476162E-01
  3.464814E-01
  3.479027E-01
  3.485695E-01
  3.510276E-01
  3.511555E-01
  3.518884E-01
  3.502550E-01
  3.500900E-01
  3.483625E-01
  3.481702E-01
  3.460039E-01
  3.452385E-01
  3.410747E-01
  3.428572E-01
  3.434180E-01
  3.462977E-01
  3.471000E-01
  3.492882E-01
  3.486662E-01
  3.493078E-01
  3.476564E-01
  3.480120E-01
  3.465205E-01
  3.469783E-01
  3.453642E-01
  3.457978E-01
  3.447554E-01
  3.464745E-01
  3.469997E-01
  3.498344E-01
  3.503646E-01
  3.518904E-01
  3.500876E-01
  3.490907E-01
  3.456488E-01
  3.446853E-01
  3.431004E-01
  3.450123E-01
  3.459142E-01
  3.486080E-01
  3.481621E-01
  3.482952E-01
  3.456904E-01
  3.453043E-01
  3.439686E-01
  3.457164E-01
  3.460928E-01
  3.481666E-01
  3.472966E-01
  3.472802E-01
  3.446685E-01
  3.441828E-01
  3.425165E-01
  3.437076E-01
  3.435266E-01
  3.454279E-01
  3.452118E-01
  3.468088E-01
  3.464142E-01
  3.479608E-01
  3.472860E-01
  3.480429E-01
  3.462361E-01
  3.461403E-01
  3.444233E-01
  3.455239E-01
  3.456604E-01
  3.484303E-01
  3.492444E-01
  3.513553E-01
  3.503303E-01
  3.500573E-01
  3.469176E-01
  3.454712E-01
  3.424397E-01
  3.422134E-01
  3.458465E-01
  3.463471E-01
  3.457158E-01
  3.471115E-01
  3.469919E-01
  3.480220E-01
  3.468011E-01
  3.467313E-01
  3.451469E-01
  3.455852E-01
  3.448722E-01
  3.458368E-01
  3.450130E-01
  3.455751E-01
  3.447438E-01
  3.461582E-01
  3.468912E-01
  3.498261E-01
  3.510328E-01
  3.528026E-01
  3.514010E-01
  3.501958E-01
  3.468314E-01
  3.455378E-01
  3.438903E-01
  3.451204E-01
  3.455565E-01
  3.475848E-01
  3.474949E-01
  3.483873E-01
  3.473575E-01
  3.478251E-01
  3.466485E-01
  3.468982E-01
  3.454335E-01
  3.456292E-01
  3.445672E-01
  3.454620E-01
  3.449832E-01
  3.460616E-01
  3.454657E-01
  3.464638E-01
  3.460331E-01
  3.473058E-01
  3.469165E-01
  3.478196E-01
  3.467860E-01
  3.470667E-01
  3.456016E-01
  3.456411E-01
  3.441888E-01
  3.447187E-01
  3.444151E-01
  3.464824E-01
  3.473494E-01
  3.494600E-01
  3.490712E-01
  3.493303E-01
  3.475478E-01
  3.475190E-01
  3.463935E-01
  3.472205E-01
  3.464751E-01
  3.470521E-01
  3.453195E-01
  3.464490E-01
  3.463053E-01
  3.469232E-01
  3.467885E-01
  3.476267E-01
  3.474062E-01
  3.476632E-01
  3.466192E-01
  3.462073E-01
  3.448840E-01
  3.446169E-01
  3.438749E-01
  3.446382E-01
  3.452449E-01
  3.472889E-01
  3.486402E-01
  3.506819E-01
  3.513757E-01
  3.522767E-01
  3.513291E-01
  3.500999E-01
  3.469711E-01
  3.444126E-01
  3.416644E-01
  3.412195E-01
  3.413537E-01
  3.431016E-01
  3.437518E-01
  3.445216E-01
  3.438636E-01
  3.442243E-01
  3.444014E-01
  3.461283E-01
  3.470684E-01
  3.482652E-01
  3.475788E-01
  3.469696E-01
  3.452655E-01
  3.448284E-01
  3.441992E-01
  3.450652E-01
  3.453684E-01
  3.465265E-01
  3.465272E-01
  3.470081E-01
  3.461938E-01
  3.459388E-01
  3.446719E-01
  3.444168E-01
  3.436730E-01
  3.443261E-01
  3.445410E-01
  3.458154E-01
  3.461005E-01
  3.469682E-01
  3.465824E-01
  3.466754E-01
  3.454710E-01
  3.448602E-01
  3.434415E-01
  3.434364E-01
  3.433422E-01
  3.447248E-01
  3.512454E-01
  3.505509E-01
  3.492327E-01
  3.477817E-01
  3.469280E-01
  3.463383E-01
  3.460350E-01
  3.455391E-01
  3.451498E-01
  3.446749E-01
  3.444741E-01
  3.442804E-01
  3.444447E-01
  3.447969E-01
  3.457370E-01
  3.469662E-01
  3.486177E-01
  3.501251E-01
  3.514559E-01
  3.519673E-01
  3.516445E-01
  3.500768E-01
  3.478095E-01
  3.451730E-01
  3.431994E-01
  3.420840E-01
  3.421444E-01
  3.427487E-01
  3.437756E-01
  3.447227E-01
  3.458734E-01
  3.469022E-01
  3.478510E-01
  3.480625E-01
  3.476771E-01
  3.466760E-01
  3.459102E-01
  3.455152E-01
  3.458073E-01
  3.462040E-01
  3.467274E-01
  3.470537E-01
  3.475749E-01
  3.479490E-01
  3.481506E-01
  3.475091E-01
  3.462397E-01
  3.444275E-01
  3.430174E-01
  3.423116E-01
  3.428828E-01
  3.443274E-01
  3.464447E-01
  3.481820E-01
  3.490637E-01
  3.483697E-01
  3.465765E-01
  3.441516E-01
  3.423929E-01
  3.418270E-01
  3.430384E-01
  3.453893E-01
  3.482898E-01
  3.503871E-01
  3.507462E-01
  3.503251E-01
  3.495384E-01
  3.473015E-01
  3.465964E-01
  3.457507E-01
  3.465054E-01
  3.462652E-01
  3.466049E-01
  3.453845E-01
  3.448565E-01
  3.434578E-01
  3.437142E-01
  3.439149E-01
  3.459543E-01
  3.472485E-01
  3.491528E-01
  3.493131E-01
  3.499578E-01
  3.494090E-01
  3.497348E-01
  3.484847E-01
  3.472882E-01
  3.442666E-01
  3.422538E-01
  3.401682E-01
  3.404284E-01
  3.406728E-01
  3.421592E-01
  3.423817E-01
  3.434922E-01
  3.439962E-01
  3.462067E-01
  3.477430E-01
  3.498029E-01
  3.496124E-01
  3.491007E-01
  3.467935E-01
  3.455645E-01
  3.440412E-01
  3.444718E-01
  3.446712E-01
  3.462544E-01
  3.466826E-01
  3.475037E-01
  3.464051E-01
  3.455172E-01
  3.433159E-01
  3.425456E-01
  3.418090E-01
  3.433073E-01
  3.446513E-01
  3.470363E-01
  3.475769E-01
  3.478916E-01
  3.461607E-01
  3.450235E-01
  3.430036E-01
  3.424135E-01
  3.414243E-01
  3.423182E-01
  3.433376E-01
  3.463421E-01
  3.485051E-01
  3.551768E-01
  3.527661E-01
  3.512600E-01
  3.474934E-01
  3.465025E-01
  3.442551E-01
  3.447454E-01
  3.434356E-01
  3.443204E-01
  3.431093E-01
  3.440397E-01
  3.430036E-01
  3.443431E-01
  3.439277E-01
  3.458771E-01
  3.457226E-01
  3.474359E-01
  3.467188E-01
  3.479616E-01
  3.471095E-01
  3.483659E-01
  3.472247E-01
  3.476595E-01
  3.454742E-01
  3.452950E-01
  3.433771E-01
  3.441635E-01
  3.433720E-01
  3.450320E-01
  3.448924E-01
  3.472419E-01
  3.477636E-01
  3.502220E-01
  3.497102E-01
  3.501196E-01
  3.474876E-01
  3.468545E-01
  3.446913E-01
  3.454376E-01
  3.446581E-01
  3.462920E-01
  3.460302E-01
  3.480434E-01
  3.478002E-01
  3.489612E-01
  3.468111E-01
  3.457142E-01
  3.422311E-01
  3.416140E-01
  3.404040E-01
  3.428837E-01
  3.443276E-01
  3.480072E-01
  3.487212E-01
  3.500943E-01
  3.478527E-01
  3.468060E-01
  3.436113E-01
  3.433810E-01
  3.425295E-01
  3.454338E-01
  3.474955E-01
  3.519939E-01
  3.534489E-01
  3.517311E-01
  3.498080E-01
  3.498499E-01
  3.462692E-01
  3.462181E-01
  3.438288E-01
  3.452174E-01
  3.436747E-01
  3.450633E-01
  3.430078E-01
  3.439468E-01
  3.420040E-01
  3.437777E-01
  3.431117E-01
  3.459217E-01
  3.452890E-01
  3.469577E-01
  3.446949E-01
  3.454435E-01
  3.436909E-01
  3.458928E-01
  3.452318E-01
  3.471606E-01
  3.450328E-01
  3.455497E-01
  3.432196E-01
  3.447644E-01
  3.437254E-01
  3.458304E-01
  3.445374E-01
  3.464036E-01
  3.456629E-01
  3.487369E-01
  3.487953E-01
  3.512728E-01
  3.492350E-01
  3.491007E-01
  3.452680E-01
  3.449016E-01
  3.423795E-01
  3.441624E-01
  3.437857E-01
  3.469556E-01
  3.466480E-01
  3.484857E-01
  3.458925E-01
  3.455104E-01
  3.418748E-01
  3.421353E-01
  3.406132E-01
  3.434844E-01
  3.439058E-01
  3.472514E-01
  3.465957E-01
  3.481892E-01
  3.462264E-01
  3.475745E-01
  3.461044E-01
  3.478481E-01
  3.462618E-01
  3.477943E-01
  3.466359E-01
  3.493455E-01
  3.492292E-01
  3.529520E-01
  3.497969E-01
  3.501282E-01
  3.462534E-01
  3.466006E-01
  3.432330E-01
  3.441861E-01
  3.414132E-01
  3.429730E-01
  3.409085E-01
  3.432498E-01
  3.419334E-01
  3.448312E-01
  3.436755E-01
  3.461984E-01
  3.441139E-01
  3.455012E-01
  3.426606E-01
  3.441664E-01
  3.423925E-01
  3.453658E-01
  3.446663E-01
  3.478239E-01
  3.464850E-01
  3.488119E-01
  3.469776E-01
  3.491981E-01
  3.473516E-01
  3.495134E-01
  3.477785E-01
  3.504611E-01
  3.493654E-01
  3.520256E-01
  3.496319E-01
  3.500937E-01
  3.458323E-01
  3.458854E-01
  3.428721E-01
  3.449094E-01
  3.436341E-01
  3.467489E-01
  3.460723E-01
  3.494956E-01
  3.484763E-01
  3.504711E-01
  3.470193E-01
  3.465966E-01
  3.420903E-01
  3.425295E-01
  3.404079E-01
  3.435759E-01
  3.434622E-01
  3.474437E-01
  3.470170E-01
  3.501152E-01
  3.487343E-01
  3.511415E-01
  3.493431E-01
  3.515106E-01
  3.495950E-01
  3.518668E-01
  3.503094E-01
  3.529296E-01
  3.512361E-01
  3.475334E-01
  3.462029E-01
  3.481628E-01
  3.458145E-01
  3.469610E-01
  3.444444E-01
  3.458364E-01
  3.435543E-01
  3.449288E-01
  3.425285E-01
  3.440015E-01
  3.421677E-01
  3.446107E-01
  3.437338E-01
  3.465254E-01
  3.449241E-01
  3.461248E-01
  3.429778E-01
  3.437687E-01
  3.418110E-01
  3.446722E-01
  3.443149E-01
  3.473693E-01
  3.459490E-01
  3.478252E-01
  3.460628E-01
  3.483920E-01
  3.470133E-01
  3.489773E-01
  3.466998E-01
  3.481218E-01
  3.462666E-01
  3.487260E-01
  3.475320E-01
  3.495577E-01
  3.469411E-01
  3.473599E-01
  3.438725E-01
  3.445806E-01
  3.425047E-01
  3.452461E-01
  3.451102E-01
  3.489422E-01
  3.484186E-01
  3.504286E-01
  3.473697E-01
  3.473295E-01
  3.436594E-01
  3.445013E-01