# vtk DataFile Version 2.0
title
ASCII
DATASET STRUCTURED_GRID
DIMENSIONS   64   64    1
POINTS   4096  float
  0.000000E+00  0.000000E+00  0.000000E+00
  0.000000E+00  3.906250E-01  0.000000E+00
  0.000000E+00  7.812500E-01  0.000000E+00
  0.000000E+00  1.171875E+00  0.000000E+00
  0.000000E+00  1.562500E+00  0.000000E+00
  0.000000E+00  1.953125E+00  0.000000E+00
  0.000000E+00  2.343750E+00  0.000000E+00
  0.000000E+00  2.734375E+00  0.000000E+00
  0.000000E+00  3.125000E+00  0.000000E+00
  0.000000E+00  3.515625E+00  0.000000E+00
  0.000000E+00  3.906250E+00  0.000000E+00
  0.000000E+00  4.296875E+00  0.000000E+00
  0.000000E+00  4.687500E+00  0.000000E+00
  0.000000E+00  5.078125E+00  0.000000E+00
  0.000000E+00  5.468750E+00  0.000000E+00
  0.000000E+00  5.859375E+00  0.000000E+00
  0.000000E+00  6.250000E+00  0.000000E+00
  0.000000E+00  6.640625E+00  0.000000E+00
  0.000000E+00  7.031250E+00  0.000000E+00
  0.000000E+00  7.421875E+00  0.000000E+00
  0.000000E+00  7.812500E+00  0.000000E+00
  0.000000E+00  8.203125E+00  0.000000E+00
  0.000000E+00  8.593750E+00  0.000000E+00
  0.000000E+00  8.984375E+00  0.000000E+00
  0.000000E+00  9.375000E+00  0.000000E+00
  0.000000E+00  9.765625E+00  0.000000E+00
  0.000000E+00  1.015625E+01  0.000000E+00
  0.000000E+00  1.054688E+01  0.000000E+00
  0.000000E+00  1.093750E+01  0.000000E+00
  0.000000E+00  1.132812E+01  0.000000E+00
  0.000000E+00  1.171875E+01  0.000000E+00
  0.000000E+00  1.210938E+01  0.000000E+00
  0.000000E+00  1.250000E+01  0.000000E+00
  0.000000E+00  1.289062E+01  0.000000E+00
  0.000000E+00  1.328125E+01  0.000000E+00
  0.000000E+00  1.367188E+01  0.000000E+00
  0.000000E+00  1.406250E+01  0.000000E+00
  0.000000E+00  1.445312E+01  0.000000E+00
  0.000000E+00  1.484375E+01  0.000000E+00
  0.000000E+00  1.523438E+01  0.000000E+00
  0.000000E+00  1.562500E+01  0.000000E+00
  0.000000E+00  1.601562E+01  0.000000E+00
  0.000000E+00  1.640625E+01  0.000000E+00
  0.000000E+00  1.679688E+01  0.000000E+00
  0.000000E+00  1.718750E+01  0.000000E+00
  0.000000E+00  1.757812E+01  0.000000E+00
  0.000000E+00  1.796875E+01  0.000000E+00
  0.000000E+00  1.835938E+01  0.000000E+00
  0.000000E+00  1.875000E+01  0.000000E+00
  0.000000E+00  1.914062E+01  0.000000E+00
  0.000000E+00  1.953125E+01  0.000000E+00
  0.000000E+00  1.992188E+01  0.000000E+00
  0.000000E+00  2.031250E+01  0.000000E+00
  0.000000E+00  2.070312E+01  0.000000E+00
  0.000000E+00  2.109375E+01  0.000000E+00
  0.000000E+00  2.148438E+01  0.000000E+00
  0.000000E+00  2.187500E+01  0.000000E+00
  0.000000E+00  2.226562E+01  0.000000E+00
  0.000000E+00  2.265625E+01  0.000000E+00
  0.000000E+00  2.304688E+01  0.000000E+00
  0.000000E+00  2.343750E+01  0.000000E+00
  0.000000E+00  2.382812E+01  0.000000E+00
  0.000000E+00  2.421875E+01  0.000000E+00
  0.000000E+00  2.460938E+01  0.000000E+00
  3.906250E-01  0.000000E+00  0.000000E+00
  3.906250E-01  3.906250E-01  0.000000E+00
  3.906250E-01  7.812500E-01  0.000000E+00
  3.906250E-01  1.171875E+00  0.000000E+00
  3.906250E-01  1.562500E+00  0.000000E+00
  3.906250E-01  1.953125E+00  0.000000E+00
  3.906250E-01  2.343750E+00  0.000000E+00
  3.906250E-01  2.734375E+00  0.000000E+00
  3.906250E-01  3.125000E+00  0.000000E+00
  3.906250E-01  3.515625E+00  0.000000E+00
  3.906250E-01  3.906250E+00  0.000000E+00
  3.906250E-01  4.296875E+00  0.000000E+00
  3.906250E-01  4.687500E+00  0.000000E+00
  3.906250E-01  5.078125E+00  0.000000E+00
  3.906250E-01  5.468750E+00  0.000000E+00
  3.906250E-01  5.859375E+00  0.000000E+00
  3.906250E-01  6.250000E+00  0.000000E+00
  3.906250E-01  6.640625E+00  0.000000E+00
  3.906250E-01  7.031250E+00  0.000000E+00
  3.906250E-01  7.421875E+00  0.000000E+00
  3.906250E-01  7.812500E+00  0.000000E+00
  3.906250E-01  8.203125E+00  0.000000E+00
  3.906250E-01  8.593750E+00  0.000000E+00
  3.906250E-01  8.984375E+00  0.000000E+00
  3.906250E-01  9.375000E+00  0.000000E+00
  3.906250E-01  9.765625E+00  0.000000E+00
  3.906250E-01  1.015625E+01  0.000000E+00
  3.906250E-01  1.054688E+01  0.000000E+00
  3.906250E-01  1.093750E+01  0.000000E+00
  3.906250E-01  1.132812E+01  0.000000E+00
  3.906250E-01  1.171875E+01  0.000000E+00
  3.906250E-01  1.210938E+01  0.000000E+00
  3.906250E-01  1.250000E+01  0.000000E+00
  3.906250E-01  1.289062E+01  0.000000E+00
  3.906250E-01  1.328125E+01  0.000000E+00
  3.906250E-01  1.367188E+01  0.000000E+00
  3.906250E-01  1.406250E+01  0.000000E+00
  3.906250E-01  1.445312E+01  0.000000E+00
  3.906250E-01  1.484375E+01  0.000000E+00
  3.906250E-01  1.523438E+01  0.000000E+00
  3.906250E-01  1.562500E+01  0.000000E+00
  3.906250E-01  1.601562E+01  0.000000E+00
  3.906250E-01  1.640625E+01  0.000000E+00
  3.906250E-01  1.679688E+01  0.000000E+00
  3.906250E-01  1.718750E+01  0.000000E+00
  3.906250E-01  1.757812E+01  0.000000E+00
  3.906250E-01  1.796875E+01  0.000000E+00
  3.906250E-01  1.835938E+01  0.000000E+00
  3.906250E-01  1.875000E+01  0.000000E+00
  3.906250E-01  1.914062E+01  0.000000E+00
  3.906250E-01  1.953125E+01  0.000000E+00
  3.906250E-01  1.992188E+01  0.000000E+00
  3.906250E-01  2.031250E+01  0.000000E+00
  3.906250E-01  2.070312E+01  0.000000E+00
  3.906250E-01  2.109375E+01  0.000000E+00
  3.906250E-01  2.148438E+01  0.000000E+00
  3.906250E-01  2.187500E+01  0.000000E+00
  3.906250E-01  2.226562E+01  0.000000E+00
  3.906250E-01  2.265625E+01  0.000000E+00
  3.906250E-01  2.304688E+01  0.000000E+00
  3.906250E-01  2.343750E+01  0.000000E+00
  3.906250E-01  2.382812E+01  0.000000E+00
  3.906250E-01  2.421875E+01  0.000000E+00
  3.906250E-01  2.460938E+01  0.000000E+00
  7.812500E-01  0.000000E+00  0.000000E+00
  7.812500E-01  3.906250E-01  0.000000E+00
  7.812500E-01  7.812500E-01  0.000000E+00
  7.812500E-01  1.171875E+00  0.000000E+00
  7.812500E-01  1.562500E+00  0.000000E+00
  7.812500E-01  1.953125E+00  0.000000E+00
  7.812500E-01  2.343750E+00  0.000000E+00
  7.812500E-01  2.734375E+00  0.000000E+00
  7.812500E-01  3.125000E+00  0.000000E+00
  7.812500E-01  3.515625E+00  0.000000E+00
  7.812500E-01  3.906250E+00  0.000000E+00
  7.812500E-01  4.296875E+00  0.000000E+00
  7.812500E-01  4.687500E+00  0.000000E+00
  7.812500E-01  5.078125E+00  0.000000E+00
  7.812500E-01  5.468750E+00  0.000000E+00
  7.812500E-01  5.859375E+00  0.000000E+00
  7.812500E-01  6.250000E+00  0.000000E+00
  7.812500E-01  6.640625E+00  0.000000E+00
  7.812500E-01  7.031250E+00  0.000000E+00
  7.812500E-01  7.421875E+00  0.000000E+00
  7.812500E-01  7.812500E+00  0.000000E+00
  7.812500E-01  8.203125E+00  0.000000E+00
  7.812500E-01  8.593750E+00  0.000000E+00
  7.812500E-01  8.984375E+00  0.000000E+00
  7.812500E-01  9.375000E+00  0.000000E+00
  7.812500E-01  9.765625E+00  0.000000E+00
  7.812500E-01  1.015625E+01  0.000000E+00
  7.812500E-01  1.054688E+01  0.000000E+00
  7.812500E-01  1.093750E+01  0.000000E+00
  7.812500E-01  1.132812E+01  0.000000E+00
  7.812500E-01  1.171875E+01  0.000000E+00
  7.812500E-01  1.210938E+01  0.000000E+00
  7.812500E-01  1.250000E+01  0.000000E+00
  7.812500E-01  1.289062E+01  0.000000E+00
  7.812500E-01  1.328125E+01  0.000000E+00
  7.812500E-01  1.367188E+01  0.000000E+00
  7.812500E-01  1.406250E+01  0.000000E+00
  7.812500E-01  1.445312E+01  0.000000E+00
  7.812500E-01  1.484375E+01  0.000000E+00
  7.812500E-01  1.523438E+01  0.000000E+00
  7.812500E-01  1.562500E+01  0.000000E+00
  7.812500E-01  1.601562E+01  0.000000E+00
  7.812500E-01  1.640625E+01  0.000000E+00
  7.812500E-01  1.679688E+01  0.000000E+00
  7.812500E-01  1.718750E+01  0.000000E+00
  7.812500E-01  1.757812E+01  0.000000E+00
  7.812500E-01  1.796875E+01  0.000000E+00
  7.812500E-01  1.835938E+01  0.000000E+00
  7.812500E-01  1.875000E+01  0.000000E+00
  7.812500E-01  1.914062E+01  0.000000E+00
  7.812500E-01  1.953125E+01  0.000000E+00
  7.812500E-01  1.992188E+01  0.000000E+00
  7.812500E-01  2.031250E+01  0.000000E+00
  7.812500E-01  2.070312E+01  0.000000E+00
  7.812500E-01  2.109375E+01  0.000000E+00
  7.812500E-01  2.148438E+01  0.000000E+00
  7.812500E-01  2.187500E+01  0.000000E+00
  7.812500E-01  2.226562E+01  0.000000E+00
  7.812500E-01  2.265625E+01  0.000000E+00
  7.812500E-01  2.304688E+01  0.000000E+00
  7.812500E-01  2.343750E+01  0.000000E+00
  7.812500E-01  2.382812E+01  0.000000E+00
  7.812500E-01  2.421875E+01  0.000000E+00
  7.812500E-01  2.460938E+01  0.000000E+00
  1.171875E+00  0.000000E+00  0.000000E+00
  1.171875E+00  3.906250E-01  0.000000E+00
  1.171875E+00  7.812500E-01  0.000000E+00
  1.171875E+00  1.171875E+00  0.000000E+00
  1.171875E+00  1.562500E+00  0.000000E+00
  1.171875E+00  1.953125E+00  0.000000E+00
  1.171875E+00  2.343750E+00  0.000000E+00
  1.171875E+00  2.734375E+00  0.000000E+00
  1.171875E+00  3.125000E+00  0.000000E+00
  1.171875E+00  3.515625E+00  0.000000E+00
  1.171875E+00  3.906250E+00  0.000000E+00
  1.171875E+00  4.296875E+00  0.000000E+00
  1.171875E+00  4.687500E+00  0.000000E+00
  1.171875E+00  5.078125E+00  0.000000E+00
  1.171875E+00  5.468750E+00  0.000000E+00
  1.171875E+00  5.859375E+00  0.000000E+00
  1.171875E+00  6.250000E+00  0.000000E+00
  1.171875E+00  6.640625E+00  0.000000E+00
  1.171875E+00  7.031250E+00  0.000000E+00
  1.171875E+00  7.421875E+00  0.000000E+00
  1.171875E+00  7.812500E+00  0.000000E+00
  1.171875E+00  8.203125E+00  0.000000E+00
  1.171875E+00  8.593750E+00  0.000000E+00
  1.171875E+00  8.984375E+00  0.000000E+00
  1.171875E+00  9.375000E+00  0.000000E+00
  1.171875E+00  9.765625E+00  0.000000E+00
  1.171875E+00  1.015625E+01  0.000000E+00
  1.171875E+00  1.054688E+01  0.000000E+00
  1.171875E+00  1.093750E+01  0.000000E+00
  1.171875E+00  1.132812E+01  0.000000E+00
  1.171875E+00  1.171875E+01  0.000000E+00
  1.171875E+00  1.210938E+01  0.000000E+00
  1.171875E+00  1.250000E+01  0.000000E+00
  1.171875E+00  1.289062E+01  0.000000E+00
  1.171875E+00  1.328125E+01  0.000000E+00
  1.171875E+00  1.367188E+01  0.000000E+00
  1.171875E+00  1.406250E+01  0.000000E+00
  1.171875E+00  1.445312E+01  0.000000E+00
[...]
POINT_DATA   4096
SCALARS CON  float  1
LOOKUP_TABLE default
  4.038657E-01
  4.032033E-01
  4.081815E-01
  4.059800E-01
  4.067361E-01
  4.012190E-01
  4.027283E-01
  4.012831E-01
  4.060921E-01
  4.041298E-01
  4.055455E-01
  4.006451E-01
  4.017394E-01
  3.986370E-01
  4.019424E-01
  4.006584E-01
  4.052883E-01
  4.042679E-01
  4.073575E-01
  4.032221E-01
  4.034386E-01
  3.984260E-01
  3.996109E-01
  3.959559E-01
  3.976859E-01
  3.942201E-01
  3.971970E-01
  3.966992E-01
  4.029160E-01
  4.030696E-01
  4.060631E-01
  4.012236E-01
  4.017320E-01
  3.989725E-01
  4.035871E-01
  4.026167E-01
  4.049604E-01
  3.999671E-01
  4.001541E-01
  3.960932E-01
  3.984831E-01
  3.957441E-01
  3.980657E-01
  3.948013E-01
  3.971030E-01
  3.948527E-01
  3.994818E-01
  4.005512E-01
  4.076977E-01
  4.075410E-01
  4.089055E-01
  4.015075E-01
  3.993639E-01
  3.949892E-01
  4.003617E-01
  4.035026E-01
  4.120919E-01
  4.121303E-01
  4.136300E-01
  4.073019E-01
  4.065421E-01
  4.017355E-01
  4.034352E-01
  4.004309E-01
  4.044086E-01
  4.050810E-01
  4.111093E-01
  4.106407E-01
  4.103601E-01
  4.030093E-01
  4.010572E-01
  3.981714E-01
  4.021747E-01
  4.019955E-01
  4.049080E-01
  4.025680E-01
  4.043678E-01
  4.015337E-01
  4.025575E-01
  3.995726E-01
  4.025142E-01
  4.027754E-01
  4.072551E-01
  4.051470E-01
  4.048784E-01
  3.994633E-01
  3.995884E-01
  3.972105E-01
  4.000447E-01
  3.982984E-01
  4.004279E-01
  3.986192E-01
  4.021886E-01
  4.019965E-01
  4.053690E-01
  4.027859E-01
  4.035217E-01
  4.001020E-01
  4.016987E-01
  3.992006E-01
  4.008091E-01
  3.981163E-01
  4.002496E-01
  3.982723E-01
  3.998785E-01
  3.960060E-01
  3.960439E-01
  3.925358E-01
  3.945465E-01
  3.934293E-01
  3.979986E-01
  4.000509E-01
  4.073282E-01
  4.083848E-01
  4.095039E-01
  4.026317E-01
  4.003470E-01
  3.977685E-01
  4.043059E-01
  4.087576E-01
  4.157434E-01
  4.137640E-01
  4.122322E-01
  4.053731E-01
  4.046104E-01
  4.015964E-01
  4.036777E-01
  4.014230E-01
  3.980794E-01
  4.037705E-01
  4.107530E-01
  4.123106E-01
  4.102388E-01
  4.038352E-01
  4.002518E-01
  3.985325E-01
  4.010224E-01
  4.025076E-01
  4.046650E-01
  4.042403E-01
  4.047293E-01
  4.031838E-01
  4.029385E-01
  4.015449E-01
  4.028076E-01
  4.034962E-01
  4.056320E-01
  4.049152E-01
  4.042818E-01
  4.014501E-01
  4.005319E-01
  3.988088E-01
  3.991261E-01
  3.979852E-01
  3.984142E-01
  3.976019E-01
  3.987959E-01
  3.984825E-01
  3.991116E-01
  3.975746E-01
  3.979701E-01
  3.982190E-01
  4.011561E-01
  4.020905E-01
  4.027595E-01
  4.002875E-01
  3.991929E-01
  3.972489E-01
  3.971061E-01
  3.948256E-01
  3.935492E-01
  3.912160E-01
  3.919365E-01
  3.930229E-01
  3.973999E-01
  4.014646E-01
  4.069965E-01
  4.087229E-01
  4.082629E-01
  4.033577E-01
  4.002041E-01
  3.986678E-01
  4.027391E-01
  4.076974E-01
  4.134308E-01
  4.138457E-01
  4.113704E-01
  4.045895E-01
  3.992957E-01
  3.942047E-01
  3.931065E-01
  3.932642E-01
  3.980889E-01
  4.048730E-01
  4.097942E-01
  4.129776E-01
  4.084811E-01
  4.025903E-01
  3.957974E-01
  3.949211E-01
  3.957989E-01
  4.002685E-01
  4.025711E-01
  4.058668E-01
  4.057893E-01
  4.059616E-01
  4.027324E-01
  4.015962E-01
  4.003424E-01
  4.032484E-01
  4.047910E-01
  4.068748E-01
  4.048126E-01
  4.036633E-01
  4.010589E-01
  4.016929E-01
  4.010898E-01
  4.021103E-01
  4.001264E-01
  3.994549E-01
  3.972833E-01
  3.984555E-01
  3.988401E-01
  4.012199E-01
  4.005902E-01
  4.008104E-01
  3.985997E-01
  3.986536E-01
  3.975006E-01
  3.992759E-01
  3.996951E-01
  4.015758E-01
  3.997083E-01
  3.980944E-01
  3.945037E-01
  3.947493E-01
  3.951914E-01
  3.984944E-01
  3.996105E-01
  4.025882E-01
  4.037096E-01
  4.059968E-01
  4.040725E-01
  4.021815E-01
  3.988241E-01
  4.005162E-01
  4.036442E-01
  4.098362E-01
  4.118089E-01
  4.116915E-01
  4.062368E-01
  4.018942E-01
  3.968036E-01
  3.955288E-01
  3.938363E-01
  3.957306E-01
  3.949281E-01
  4.037576E-01
  4.065246E-01
  4.101954E-01
  4.039593E-01
  4.006576E-01
  3.937512E-01
  3.951100E-01
  3.943962E-01
  4.001088E-01
  4.007606E-01
  4.054165E-01
  4.034398E-01
  4.050871E-01
  4.010780E-01
  4.027020E-01
  4.005547E-01
  4.044308E-01
  4.033082E-01
  4.065088E-01
  4.036634E-01
  4.051113E-01
  4.009712E-01
  4.016621E-01
  3.975222E-01
  3.989118E-01
  3.956989E-01
  3.976829E-01
  3.948971E-01
  3.976932E-01
  3.960906E-01
  3.996280E-01
  3.977379E-01
  4.005788E-01
  3.984807E-01
  4.015432E-01
  3.993389E-01
  4.018001E-01
  3.990487E-01
  4.011084E-01
  3.974579E-01
  3.982206E-01
  3.944751E-01
  3.976170E-01
  3.977244E-01
  4.032559E-01
  4.023409E-01
  4.048075E-01
  4.014706E-01
  4.031019E-01
  3.994037E-01
  4.003233E-01
  3.965230E-01
  3.991776E-01
  3.987215E-01
  4.044725E-01
  4.047603E-01
  4.082165E-01
  4.040575E-01
  4.029334E-01
  3.959196E-01
  3.944544E-01
  3.898464E-01
  3.931964E-01
  3.990958E-01
  4.048929E-01
  4.047325E-01
  4.080291E-01
  4.016065E-01
  3.991062E-01
  3.915742E-01
  3.928726E-01
  3.913362E-01
  3.975889E-01
  3.983445E-01
  4.042216E-01
  4.023132E-01
  4.043942E-01
  3.994477E-01
  4.012103E-01
  3.991039E-01
  4.048008E-01
  4.046660E-01
  4.089511E-01
  4.050752E-01
  4.057741E-01
  4.001182E-01
  4.008995E-01
  3.965904E-01
  3.990076E-01
  3.958133E-01
  3.985542E-01
  3.958119E-01
  4.003639E-01
  4.003614E-01
  4.061122E-01
  4.035530E-01
  4.042283E-01
  3.978850E-01
  3.987935E-01
  3.961903E-01
  4.014194E-01
  4.009399E-01
  4.048933E-01
  4.004903E-01
  4.008433E-01
  3.966420E-01
  4.016120E-01
  4.029052E-01
  4.091748E-01
  4.058498E-01
  4.056175E-01
  3.991381E-01
  4.000989E-01
  3.962528E-01
  3.985820E-01
  3.953055E-01
  3.990939E-01
  3.981647E-01
  4.032851E-01
  4.012082E-01
  4.036531E-01
  3.995575E-01
  4.018752E-01
  3.988053E-01
  4.016782E-01
  3.982091E-01
  4.009212E-01
  3.976540E-01
  4.024301E-01
  4.019937E-01
  4.046631E-01
  4.001816E-01
  3.997350E-01
  3.949362E-01
  3.965035E-01
  3.946816E-01
  3.989357E-01
  3.986165E-01
  4.025654E-01
  4.001499E-01
  4.016992E-01
  3.985799E-01
  4.018784E-01
  4.017303E-01
  4.069891E-01
  4.063722E-01
  4.092120E-01
  4.055253E-01
  4.055877E-01
  3.996206E-01
  3.982060E-01
  3.926836E-01
  3.940264E-01
  3.924417E-01
  3.967891E-01
  3.963588E-01
  4.009565E-01
  4.007561E-01
  4.050171E-01
  4.028290E-01
  4.043112E-01
  4.008099E-01
  4.033496E-01
  4.017750E-01
  4.049881E-01
  4.022548E-01
  4.033937E-01
  3.988207E-01
  3.994483E-01
  3.968094E-01
  4.017154E-01
  4.034016E-01
  4.091469E-01
  4.065908E-01
  4.059950E-01
  3.997288E-01
  3.998080E-01
  3.965275E-01
  3.987519E-01
  3.958470E-01
  3.978253E-01
  3.952849E-01
  3.982781E-01
  3.967708E-01
  4.004670E-01
  3.992453E-01
  4.026267E-01
  4.001495E-01
  4.015539E-01
  3.975134E-01
  3.991985E-01
  4.000746E-01
  4.011687E-01
  4.008240E-01
  4.034125E-01
  4.018711E-01
  4.017563E-01
  3.983108E-01
  3.983890E-01
  3.969459E-01
  3.995871E-01
  3.999815E-01
  4.028160E-01
  4.015394E-01
  4.019072E-01
  3.993550E-01
  4.011318E-01
  4.022604E-01
  4.075247E-01
  4.091081E-01
  4.110438E-01
  4.073420E-01
  4.048902E-01
  3.993676E-01
  3.976082E-01
  3.946509E-01
  3.963118E-01
  3.963328E-01
  3.994240E-01
  3.996506E-01
  4.033562E-01
  4.051214E-01
  4.093517E-01
  4.082692E-01
  4.072347E-01
  4.024852E-01
  4.022546E-01
  4.016192E-01
  4.050429E-01
  4.048728E-01
  4.056548E-01
  4.018544E-01
  4.007422E-01
  3.986535E-01
  4.021925E-01
  4.043145E-01
  4.078839E-01
  4.053967E-01
  4.036901E-01
  3.995886E-01
  4.001345E-01
  3.988771E-01
  4.002224E-01
  3.983799E-01
  3.998817E-01
  3.992857E-01
  4.013261E-01
  3.993241E-01
  3.993724E-01
  3.973519E-01
  4.000659E-01
  4.012521E-01
  4.047689E-01
  4.034359E-01
  4.032248E-01
  3.955165E-01
  3.970311E-01
  3.984350E-01
  4.013787E-01
  4.025981E-01
  4.042838E-01
  4.038573E-01
  4.040925E-01
  4.029871E-01
  4.035733E-01
  4.032277E-01
  4.037685E-01
  4.021458E-01
  4.014047E-01
  4.002913E-01
  4.022387E-01
  4.044041E-01
  4.079472E-01
  4.088450E-01
  4.089877E-01
  4.061228E-01
  4.035470E-01
  3.994023E-01
  3.969816E-01
  3.947645E-01
  3.959276E-01
  3.974981E-01
  4.005235E-01
  4.013418E-01
  4.026382E-01
  4.026920E-01
  4.042176E-01
  4.041702E-01
  4.050288E-01
  4.049486E-01
  4.068139E-01
  4.071957E-01
  4.073093E-01
  4.043168E-01
  4.018359E-01
  3.987377E-01
  3.983337E-01
  3.981423E-01
  4.002189E-01
  4.011955E-01
  4.026330E-01
  4.016376E-01
  4.014673E-01
  4.006873E-01
  4.020722E-01
  4.022079E-01
  4.026722E-01
  4.010567E-01
  4.009027E-01
  4.003558E-01
  4.015469E-01
  4.010656E-01
  4.011607E-01
  3.998485E-01
  4.002116E-01
  3.995395E-01
  3.996372E-01
  3.976550E-01
  3.967559E-01
  3.964912E-01
  3.962768E-01
  3.978203E-01
  4.012445E-01
  4.037347E-01
  4.052666E-01
  4.047552E-01
  4.041904E-01
  4.034043E-01
  4.039702E-01
  4.044904E-01
  4.052354E-01
  4.042927E-01
  4.028090E-01
  4.007367E-01
  4.006565E-01
  4.021962E-01
  4.056799E-01
  4.079788E-01
  4.084126E-01
  4.056380E-01
  4.022057E-01
  3.988853E-01
  3.980340E-01
  3.987989E-01
  4.015959E-01
  4.038795E-01
  4.053092E-01
  4.045024E-01
  4.038430E-01
  4.036174E-01
  4.048657E-01
  4.051362E-01
  4.047668E-01
  4.034192E-01
  4.034593E-01
  4.038456E-01
  4.045297E-01
  4.033717E-01
  4.016747E-01
  3.994225E-01
  3.988045E-01
  3.990495E-01
  4.006030E-01
  4.010961E-01
  4.008505E-01
  3.993484E-01
  3.992943E-01
  4.005231E-01
  4.032398E-01
  4.043442E-01
  4.040608E-01
  4.025563E-01
  4.029817E-01
  4.046374E-01
  4.068115E-01
  4.061919E-01
  4.037282E-01
  4.003562E-01
  3.993527E-01
  3.998446E-01
  4.012626E-01
  4.006638E-01
  3.989360E-01
  3.931311E-01
  3.946613E-01
  3.965854E-01
  4.001737E-01
  4.025593E-01
  4.050905E-01
  4.053429E-01
  4.055662E-01
  4.044640E-01
  4.048247E-01
  4.045665E-01
  4.049106E-01
  4.031310E-01
  4.016770E-01
  3.997655E-01
  4.004627E-01
  4.017086E-01
  4.045356E-01
  4.055797E-01
  4.059966E-01
  4.036871E-01
  4.014548E-01
  3.983605E-01
  3.975335E-01
  3.977149E-01
  4.008742E-01
  4.036743E-01
  4.061312E-01
  4.049607E-01
  4.028780E-01
  3.996808E-01
  3.988270E-01
  3.985480E-01
  4.005371E-01
  4.023157E-01
  4.050933E-01
  4.054144E-01
  4.042660E-01
  4.001206E-01
  3.970473E-01
  3.949556E-01
  3.962628E-01
  3.977146E-01
  3.996557E-01
  3.992350E-01
  3.990386E-01
  3.983463E-01
  4.001537E-01
  4.021705E-01
  4.049948E-01
  4.050241E-01
  4.040620E-01
  4.014702E-01
  4.011799E-01
  4.018896E-01
  4.046606E-01
  4.057035E-01
  4.060974E-01
  4.041340E-01
  4.027425E-01
  4.002742E-01
  3.986252E-01
  3.957566E-01
  3.943116E-01
  3.963306E-01
  3.967924E-01
  3.974225E-01
  4.010168E-01
  4.023575E-01
  4.040525E-01
  4.023645E-01
  4.019495E-01
  4.002454E-01
  4.015657E-01
  4.018641E-01
  4.037622E-01
  4.024879E-01
  4.016405E-01
  3.985738E-01
  3.985779E-01
  3.989572E-01
  4.029769E-01
  4.051421E-01
  4.071604E-01
  4.045251E-01
  4.020405E-01
  3.980709E-01
  3.980501E-01
  3.988000E-01
  4.031585E-01
  4.055968E-01
  4.079775E-01
  4.059732E-01
  4.044945E-01
  4.015871E-01
  4.016924E-01
  4.004839E-01
  4.009056E-01
  3.993893E-01
  4.002531E-01
  3.997807E-01
  4.008576E-01
  3.991185E-01
  3.986129E-01
  3.967069E-01
  3.979154E-01
  3.984414E-01
  4.009722E-01
  4.007216E-01
  4.012479E-01
  3.998588E-01
  4.014619E-01
  4.023624E-01
  4.047825E-01
  4.033797E-01
  4.019718E-01
  3.988552E-01
  3.998446E-01
  4.014787E-01
  4.055995E-01
  4.062774E-01
  4.066475E-01
  4.041976E-01
  4.041228E-01
  4.029269E-01
  4.033892E-01
  4.008970E-01
  3.993625E-01
  3.946038E-01
  3.969576E-01
  3.974194E-01
  4.006469E-01
  4.011579E-01
  4.035331E-01
  4.021628E-01
  4.023352E-01
  3.998336E-01
  4.006993E-01
  3.998313E-01
  4.014182E-01
  3.995449E-01
  3.996127E-01
  3.976118E-01
  3.994695E-01
  4.000038E-01
  4.035953E-01
  4.042841E-01
  4.064729E-01
  4.044796E-01
  4.034420E-01
  3.989805E-01
  3.976049E-01
  3.955901E-01
  3.985137E-01
  4.003803E-01
  4.043607E-01
  4.036647E-01
  4.033042E-01
  3.994677E-01
  3.988401E-01
  3.970778E-01
  3.991869E-01
  3.995157E-01
  4.023296E-01
  4.015102E-01
  4.016071E-01
  3.980011E-01
  3.972000E-01
  3.953168E-01
  3.975252E-01
  3.977941E-01
  4.001983E-01
  3.993839E-01
  4.010020E-01
  4.005402E-01
  4.030785E-01
  4.027324E-01
  4.037221E-01
  4.006523E-01
  3.994079E-01
  3.962007E-01
  3.971442E-01
  3.973121E-01
  4.011667E-01
  4.026637E-01
  4.061108E-01
  4.057568E-01
  4.063595E-01
  4.027769E-01
  4.008158E-01
  3.965166E-01
  3.960283E-01
  3.990103E-01
  3.997038E-01
  3.991752E-01
  4.014178E-01
  4.015916E-01
  4.028545E-01
  4.007504E-01
  3.999756E-01
  3.975254E-01
  3.982386E-01
  3.979186E-01
  3.998255E-01
  3.990674E-01
  3.996266E-01
  3.980583E-01
  3.993021E-01
  3.997477E-01
  4.032748E-01
  4.049279E-01
  4.076147E-01
  4.062544E-01
  4.049392E-01
  4.005798E-01
  3.988033E-01
  3.966622E-01
  3.984407E-01
  3.993378E-01
  4.022237E-01
  4.021080E-01
  4.031331E-01
  4.018739E-01
  4.028237E-01
  4.015238E-01
  4.015647E-01
  3.990348E-01
  3.988746E-01
  3.976768E-01
  3.994325E-01
  3.993913E-01
  4.010107E-01
  4.000073E-01
  4.007564E-01
  3.996608E-01
  4.010693E-01
  4.006736E-01
  4.021229E-01
  4.011103E-01
  4.018458E-01
  4.002650E-01
  4.002323E-01
  3.975997E-01
  3.971323E-01
  3.958696E-01
  3.984101E-01
  3.999751E-01
  4.032269E-01
  4.031302E-01
  4.039633E-01
  4.023809E-01
  4.029919E-01
  4.016570E-01
  4.022597E-01
  4.005917E-01
  4.008002E-01
  3.991798E-01
  4.004249E-01
  4.000477E-01
  4.003404E-01
  4.006911E-01
  4.021011E-01
  4.022305E-01
  4.019091E-01
  4.002678E-01
  3.994835E-01
  3.985011E-01
  3.983553E-01
  3.976072E-01
  3.981301E-01
  3.991209E-01
  4.015738E-01
  4.030978E-01
  4.044187E-01
  4.046054E-01
  4.056364E-01
  4.058635E-01
  4.054918E-01
  4.024289E-01
  3.986995E-01
  3.947457E-01
  3.935409E-01
  3.941556E-01
  3.968504E-01
  3.985302E-01
  3.994183E-01
  3.984816E-01
  3.982929E-01
  3.984375E-01
  4.001632E-01
  4.012887E-01
  4.022935E-01
  4.015223E-01
  4.007137E-01
  3.993301E-01
  3.993215E-01
  3.992971E-01
  4.000300E-01
  3.997462E-01
  3.999229E-01
  3.996514E-01
  4.003709E-01
  4.002932E-01
  4.001969E-01
  3.986333E-01
  3.974748E-01
  3.962315E-01
  3.968462E-01
  3.978795E-01
  3.998714E-01
  4.006194E-01
  4.012386E-01
  4.008410E-01
  4.011411E-01
  4.004807E-01
  3.996302E-01
  3.973809E-01
  3.961877E-01
  3.958503E-01
  3.976964E-01
  4.061470E-01
  4.044413E-01
  4.026221E-01
  4.006406E-01
  4.007475E-01
  4.005632E-01
  4.009712E-01
  4.000407E-01
  3.998190E-01
  3.988771E-01
  3.989133E-01
  3.981185E-01
  3.984029E-01
  3.984855E-01
  4.002848E-01
  4.016966E-01
  4.037317E-01
  4.043167E-01
  4.054433E-01
  4.056622E-01
  4.063589E-01
  4.050366E-01
  4.030874E-01
  3.993774E-01
  3.968236E-01
  3.947502E-01
  3.951809E-01
  3.958793E-01
  3.976166E-01
  3.981394E-01
  3.994121E-01
  4.001923E-01
  4.020194E-01
  4.023024E-01
  4.021184E-01
  4.001292E-01
  3.992457E-01
  3.987109E-01
  4.002136E-01
  4.011048E-01
  4.021076E-01
  4.013433E-01
  4.013129E-01
  4.010719E-01
  4.021146E-01
  4.016297E-01
  4.006105E-01
  3.978182E-01
  3.962085E-01
  3.950108E-01
  3.961735E-01
  3.978192E-01
  4.012197E-01
  4.036846E-01
  4.055483E-01
  4.041516E-01
  4.015976E-01
  3.975797E-01
  3.952563E-01
  3.937442E-01
  3.950624E-01
  3.974214E-01
  4.017203E-01
  4.045901E-01
  4.074557E-01
  4.061031E-01
  4.036056E-01
  3.998509E-01
  3.992670E-01
  3.992238E-01
  4.011230E-01
  4.012462E-01
  4.018880E-01
  4.005484E-01
  3.999304E-01
  3.976229E-01
  3.970615E-01
  3.968378E-01
  3.999830E-01
  4.026853E-01
  4.054923E-01
  4.047672E-01
  4.041735E-01
  4.028502E-01
  4.039269E-01
  4.035203E-01
  4.026813E-01
  3.985747E-01
  3.953065E-01
  3.922458E-01
  3.929528E-01
  3.940937E-01
  3.964486E-01
  3.961424E-01
  3.962738E-01
  3.959368E-01
  3.988252E-01
  4.016035E-01
  4.049409E-01
  4.046944E-01
  4.035714E-01
  4.002956E-01
  3.989594E-01
  3.975984E-01
  3.985671E-01
  3.986822E-01
  4.002631E-01
  4.006301E-01
  4.020745E-01
  4.012550E-01
  4.003533E-01
  3.972506E-01
  3.958528E-01
  3.947783E-01
  3.970471E-01
  3.994659E-01
  4.032537E-01
  4.042008E-01
  4.040843E-01
  4.007821E-01
  3.983924E-01
  3.954404E-01
  3.946350E-01
  3.930750E-01
  3.937249E-01
  3.950041E-01
  3.998086E-01
  4.039718E-01
  4.121709E-01
  4.086683E-01
  4.049821E-01
  4.005910E-01
  3.992990E-01
  3.978947E-01
  3.984966E-01
  3.979667E-01
  3.990121E-01
  3.985246E-01
  3.989426E-01
  3.974340E-01
  3.974163E-01
  3.969072E-01
  3.990277E-01
  4.003403E-01
  4.025329E-01
  4.021292E-01
  4.023667E-01
  4.012968E-01
  4.021240E-01
  4.015549E-01
  4.016738E-01
  3.994320E-01
  3.982801E-01
  3.964054E-01
  3.971778E-01
  3.973906E-01
  3.988839E-01
  3.984216E-01
  3.995502E-01
  4.004404E-01
  4.037126E-01
  4.049389E-01
  4.054236E-01
  4.024386E-01
  4.004985E-01
  3.983596E-01
  3.990759E-01
  3.989099E-01
  3.998457E-01
  3.992685E-01
  4.008726E-01
  4.020272E-01
  4.042723E-01
  4.029759E-01
  4.006171E-01
  3.960644E-01
  3.944383E-01
  3.940220E-01
  3.971028E-01
  3.996561E-01
  4.033599E-01
  4.044255E-01
  4.049489E-01
  4.020053E-01
  3.993371E-01
  3.955363E-01
  3.945253E-01
  3.940452E-01
  3.971575E-01
  4.009549E-01
  4.071494E-01
  4.106468E-01
  4.080089E-01
  4.058141E-01
  4.037875E-01
  3.995355E-01
  3.987610E-01
  3.973433E-01
  3.987233E-01
  3.979373E-01
  3.990069E-01
  3.977356E-01
  3.982516E-01
  3.962800E-01
  3.965448E-01
  3.957339E-01
  3.984381E-01
  3.994782E-01
  4.014102E-01
  3.992383E-01
  3.983267E-01
  3.963934E-01
  3.985403E-01
  3.995310E-01
  4.016886E-01
  3.997458E-01
  3.987748E-01
  3.963776E-01
  3.979315E-01
  3.985827E-01
  4.008151E-01
  3.993705E-01
  3.994280E-01
  3.986500E-01
  4.020405E-01
  4.040408E-01
  4.067590E-01
  4.048395E-01
  4.032370E-01
  3.991778E-01
  3.980203E-01
  3.959181E-01
  3.970626E-01
  3.971104E-01
  4.000507E-01
  4.009942E-01
  4.030962E-01
  4.011733E-01
  3.996309E-01
  3.955368E-01
  3.947345E-01
  3.938954E-01
  3.969859E-01
  3.987102E-01
  4.019184E-01
  4.013641E-01
  4.013345E-01
  3.987335E-01
  3.992366E-01
  3.990030E-01
  4.013025E-01
  4.007032E-01
  4.015235E-01
  4.008214E-01
  4.038132E-01
  4.054610E-01
  4.070649E-01
  4.033662E-01
  4.033522E-01
  3.996697E-01
  4.003879E-01
  3.971671E-01
  3.978419E-01
  3.946997E-01
  3.960770E-01
  3.941692E-01
  3.967844E-01
  3.957115E-01
  3.986648E-01
  3.974832E-01
  3.999305E-01
  3.977598E-01
  3.988271E-01
  3.954253E-01
  3.963078E-01
  3.943960E-01
  3.979369E-01
  3.983846E-01
  4.025257E-01
  4.014752E-01
  4.034178E-01
  4.012746E-01
  4.037269E-01
  4.024362E-01
  4.046173E-01
  4.021865E-01
  4.041900E-01
  4.033945E-01
  4.070322E-01
  4.051762E-01
  4.049162E-01
  3.993554E-01
  3.987025E-01
  3.961289E-01
  3.989908E-01
  3.979718E-01
  4.004220E-01
  3.989041E-01
  4.021768E-01
  4.019702E-01
  4.048237E-01
  4.013600E-01
  3.999540E-01
  3.945052E-01
  3.948011E-01
  3.933090E-01
  3.970982E-01
  3.971814E-01
  4.009755E-01
  4.003337E-01
  4.032425E-01
  4.018758E-01
  4.046428E-01
  4.037284E-01
  4.068309E-01
  4.053455E-01
  4.073313E-01
  4.052837E-01
  4.075875E-01
  4.057475E-01
  4.003043E-01
  3.989414E-01
  4.018993E-01
  3.991129E-01
  4.011578E-01
  3.982541E-01
  4.002153E-01
  3.967291E-01
  3.980155E-01
  3.946694E-01
  3.971403E-01
  3.954359E-01
  3.992604E-01
  3.982730E-01
  4.020219E-01
  3.996690E-01
  4.006614E-01
  3.953634E-01
  3.954295E-01
  3.926607E-01
  3.974599E-01
  3.984501E-01
  4.034501E-01
  4.012447E-01
  4.027418E-01
  3.996888E-01
  4.030763E-01
  4.020058E-01
  4.049704E-01
  4.013860E-01
  4.025325E-01
  3.998174E-01
  4.033679E-01
  4.017864E-01
  4.039979E-01
  4.000152E-01
  4.007986E-01
  3.969571E-01
  3.986479E-01
  3.959618E-01
  3.991950E-01
  3.984169E-01
  4.030888E-01
  4.020711E-01
  4.045564E-01
  4.004104E-01
  4.005839E-01
  3.961266E-01
  3.977146E-01