# vtk DataFile Version 2.0
title
ASCII
DATASET STRUCTURED_GRID
DIMENSIONS   64   64    1
POINTS   4096  float
  0.000000E+00  0.000000E+00  0.000000E+00
  0.000000E+00  3.906250E-01  0.000000E+00
  0.000000E+00  7.812500E-01  0.000000E+00
  0.000000E+00  1.171875E+00  0.000000E+00
  0.000000E+00  1.562500E+00  0.000000E+00
  0.000000E+00  1.953125E+00  0.000000E+00
  0.000000E+00  2.343750E+00  0.000000E+00
  0.000000E+00  2.734375E+00  0.000000E+00
  0.000000E+00  3.125000E+00  0.000000E+00
  0.000000E+00  3.515625E+00  0.000000E+00
  0.000000E+00  3.906250E+00  0.000000E+00
  0.000000E+00  4.296875E+00  0.000000E+00
  0.000000E+00  4.687500E+00  0.000000E+00
  0.000000E+00  5.078125E+00  0.000000E+00
  0.000000E+00  5.468750E+00  0.000000E+00
  0.000000E+00  5.859375E+00  0.000000E+00
  0.000000E+00  6.250000E+00  0.000000E+00
  0.000000E+00  6.640625E+00  0.000000E+00
  0.000000E+00  7.031250E+00  0.000000E+00
  0.000000E+00  7.421875E+00  0.000000E+00
  0.000000E+00  7.812500E+00  0.000000E+00
  0.000000E+00  8.203125E+00  0.000000E+00
  0.000000E+00  8.593750E+00  0.000000E+00
  0.000000E+00  8.984375E+00  0.000000E+00
  0.000000E+00  9.375000E+00  0.000000E+00
  0.000000E+00  9.765625E+00  0.000000E+00
  0.000000E+00  1.015625E+01  0.000000E+00
  0.000000E+00  1.054688E+01  0.000000E+00
  0.000000E+00  1.093750E+01  0.000000E+00
  0.000000E+00  1.132812E+01  0.000000E+00
  0.000000E+00  1.171875E+01  0.000000E+00
  0.000000E+00  1.210938E+01  0.000000E+00
  0.000000E+00  1.250000E+01  0.000000E+00
  0.000000E+00  1.289062E+01  0.000000E+00
  0.000000E+00  1.328125E+01  0.000000E+00
  0.000000E+00  1.367188E+01  0.000000E+00
  0.000000E+00  1.406250E+01  0.000000E+00
  0.000000E+00  1.445312E+01  0.000000E+00
  0.000000E+00  1.484375E+01  0.000000E+00
  0.000000E+00  1.523438E+01  0.000000E+00
  0.000000E+00  1.562500E+01  0.000000E+00
  0.000000E+00  1.601562E+01  0.000000E+00
  0.000000E+00  1.640625E+01  0.000000E+00
  0.000000E+00  1.679688E+01  0.000000E+00
  0.000000E+00  1.718750E+01  0.000000E+00
  0.000000E+00  1.757812E+01  0.000000E+00
  0.000000E+00  1.796875E+01  0.000000E+00
  0.000000E+00  1.835938E+01  0.000000E+00
  0.000000E+00  1.875000E+01  0.000000E+00
  0.000000E+00  1.914062E+01  0.000000E+00
  0.000000E+00  1.953125E+01  0.000000E+00
  0.000000E+00  1.992188E+01  0.000000E+00
  0.000000E+00  2.031250E+01  0.000000E+00
  0.000000E+00  2.070312E+01  0.000000E+00
  0.000000E+00  2.109375E+01  0.000000E+00
  0.000000E+00  2.148438E+01  0.000000E+00
  0.000000E+00  2.187500E+01  0.000000E+00
  0.000000E+00  2.226562E+01  0.000000E+00
  0.000000E+00  2.265625E+01  0.000000E+00
  0.000000E+00  2.304688E+01  0.000000E+00
  0.000000E+00  2.343750E+01  0.000000E+00
  0.000000E+00  2.382812E+01  0.000000E+00
  0.000000E+00  2.421875E+01  0.000000E+00
  0.000000E+00  2.460938E+01  0.000000E+00
  3.906250E-01  0.000000E+00  0.000000E+00
  3.906250E-01  3.906250E-01  0.000000E+00
  3.906250E-01  7.812500E-01  0.000000E+00
  3.906250E-01  1.171875E+00  0.000000E+00
  3.906250E-01  1.562500E+00  0.000000E+00
  3.906250E-01  1.953125E+00  0.000000E+00
  3.906250E-01  2.343750E+00  0.000000E+00
  3.906250E-01  2.734375E+00  0.000000E+00
  3.906250E-01  3.125000E+00  0.000000E+00
  3.906250E-01  3.515625E+00  0.000000E+00
  3.906250E-01  3.906250E+00  0.000000E+00
  3.906250E-01  4.296875E+00  0.000000E+00
  3.906250E-01  4.687500E+00  0.000000E+00
  3.906250E-01  5.078125E+00  0.000000E+00
  3.906250E-01  5.468750E+00  0.000000E+00
  3.906250E-01  5.859375E+00  0.000000E+00
  3.906250E-01  6.250000E+00  0.000000E+00
  3.906250E-01  6.640625E+00  0.000000E+00
  3.906250E-01  7.031250E+00  0.000000E+00
  3.906250E-01  7.421875E+00  0.000000E+00
  3.906250E-01  7.812500E+00  0.000000E+00
  3.906250E-01  8.203125E+00  0.000000E+00
  3.906250E-01  8.593750E+00  0.000000E+00
  3.906250E-01  8.984375E+00  0.000000E+00
  3.906250E-01  9.375000E+00  0.000000E+00
  3.906250E-01  9.765625E+00  0.000000E+00
  3.906250E-01  1.015625E+01  0.000000E+00
  3.906250E-01  1.054688E+01  0.000000E+00
  3.906250E-01  1.093750E+01  0.000000E+00
  3.906250E-01  1.132812E+01  0.000000E+00
  3.906250E-01  1.171875E+01  0.000000E+00
  3.906250E-01  1.210938E+01  0.000000E+00
  3.906250E-01  1.250000E+01  0.000000E+00
  3.906250E-01  1.289062E+01  0.000000E+00
  3.906250E-01  1.328125E+01  0.000000E+00
  3.906250E-01  1.367188E+01  0.000000E+00
  3.906250E-01  1.406250E+01  0.000000E+00
  3.906250E-01  1.445312E+01  0.000000E+00
  3.906250E-01  1.484375E+01  0.000000E+00
  3.906250E-01  1.523438E+01  0.000000E+00
  3.906250E-01  1.562500E+01  0.000000E+00
  3.906250E-01  1.601562E+01  0.000000E+00
  3.906250E-01  1.640625E+01  0.000000E+00
  3.906250E-01  1.679688E+01  0.000000E+00
  3.906250E-01  1.718750E+01  0.000000E+00
  3.906250E-01  1.757812E+01  0.000000E+00
  3.906250E-01  1.796875E+01  0.000000E+00
  3.906250E-01  1.835938E+01  0.000000E+00
  3.906250E-01  1.875000E+01  0.000000E+00
  3.906250E-01  1.914062E+01  0.000000E+00
  3.906250E-01  1.953125E+01  0.000000E+00
  3.906250E-01  1.992188E+01  0.000000E+00
  3.906250E-01  2.031250E+01  0.000000E+00
  3.906250E-01  2.070312E+01  0.000000E+00
  3.906250E-01  2.109375E+01  0.000000E+00
  3.906250E-01  2.148438E+01  0.000000E+00
  3.906250E-01  2.187500E+01  0.000000E+00
  3.906250E-01  2.226562E+01  0.000000E+00
  3.906250E-01  2.265625E+01  0.000000E+00
  3.906250E-01  2.304688E+01  0.000000E+00
  3.906250E-01  2.343750E+01  0.000000E+00
  3.906250E-01  2.382812E+01  0.000000E+00
  3.906250E-01  2.421875E+01  0.000000E+00
  3.906250E-01  2.460938E+01  0.000000E+00
  7.812500E-01  0.000000E+00  0.000000E+00
  7.812500E-01  3.906250E-01  0.000000E+00
  7.812500E-01  7.812500E-01  0.000000E+00
  7.812500E-01  1.171875E+00  0.000000E+00
  7.812500E-01  1.562500E+00  0.000000E+00
  7.812500E-01  1.953125E+00  0.000000E+00
  7.812500E-01  2.343750E+00  0.000000E+00
  7.812500E-01  2.734375E+00  0.000000E+00
  7.812500E-01  3.125000E+00  0.000000E+00
  7.812500E-01  3.515625E+00  0.000000E+00
  7.812500E-01  3.906250E+00  0.000000E+00
  7.812500E-01  4.296875E+00  0.000000E+00
  7.812500E-01  4.687500E+00  0.000000E+00
  7.812500E-01  5.078125E+00  0.000000E+00
  7.812500E-01  5.468750E+00  0.000000E+00
  7.812500E-01  5.859375E+00  0.000000E+00
  7.812500E-01  6.250000E+00  0.000000E+00
  7.812500E-01  6.640625E+00  0.000000E+00
  7.812500E-01  7.031250E+00  0.000000E+00
  7.812500E-01  7.421875E+00  0.000000E+00
  7.812500E-01  7.812500E+00  0.000000E+00
  7.812500E-01  8.203125E+00  0.000000E+00
  7.812500E-01  8.593750E+00  0.000000E+00
  7.812500E-01  8.984375E+00  0.000000E+00
  7.812500E-01  9.375000E+00  0.000000E+00
  7.812500E-01  9.765625E+00  0.000000E+00
  7.812500E-01  1.015625E+01  0.000000E+00
  7.812500E-01  1.054688E+01  0.000000E+00
  7.812500E-01  1.093750E+01  0.000000E+00
  7.812500E-01  1.132812E+01  0.000000E+00
  7.812500E-01  1.171875E+01  0.000000E+00
  7.812500E-01  1.210938E+01  0.000000E+00
  7.812500E-01  1.250000E+01  0.000000E+00
  7.812500E-01  1.289062E+01  0.000000E+00
  7.812500E-01  1.328125E+01  0.000000E+00
  7.812500E-01  1.367188E+01  0.000000E+00
  7.812500E-01  1.406250E+01  0.000000E+00
  7.812500E-01  1.445312E+01  0.000000E+00
  7.812500E-01  1.484375E+01  0.000000E+00
  7.812500E-01  1.523438E+01  0.000000E+00
  7.812500E-01  1.562500E+01  0.000000E+00
  7.812500E-01  1.601562E+01  0.000000E+00
  7.812500E-01  1.640625E+01  0.000000E+00
  7.812500E-01  1.679688E+01  0.000000E+00
  7.812500E-01  1.718750E+01  0.000000E+00
  7.812500E-01  1.757812E+01  0.000000E+00
  7.812500E-01  1.796875E+01  0.000000E+00
  7.812500E-01  1.835938E+01  0.000000E+00
  7.812500E-01  1.875000E+01  0.000000E+00
  7.812500E-01  1.914062E+01  0.000000E+00
  7.812500E-01  1.953125E+01  0.000000E+00
  7.812500E-01  1.992188E+01  0.000000E+00
  7.812500E-01  2.031250E+01  0.000000E+00
  7.812500E-01  2.070312E+01  0.000000E+00
  7.812500E-01  2.109375E+01  0.000000E+00
  7.812500E-01  2.148438E+01  0.000000E+00
  7.812500E-01  2.187500E+01  0.000000E+00
  7.812500E-01  2.226562E+01  0.000000E+00
  7.812500E-01  2.265625E+01  0.000000E+00
  7.812500E-01  2.304688E+01  0.000000E+00
  7.812500E-01  2.343750E+01  0.000000E+00
  7.812500E-01  2.382812E+01  0.000000E+00
  7.812500E-01  2.421875E+01  0.000000E+00
  7.812500E-01  2.460938E+01  0.000000E+00
  1.171875E+00  0.000000E+00  0.000000E+00
  1.171875E+00  3.906250E-01  0.000000E+00
  1.171875E+00  7.812500E-01  0.000000E+00
  1.171875E+00  1.171875E+00  0.000000E+00
  1.171875E+00  1.562500E+00  0.000000E+00
  1.171875E+00  1.953125E+00  0.000000E+00
  1.171875E+00  2.343750E+00  0.000000E+00
  1.171875E+00  2.734375E+00  0.000000E+00
  1.171875E+00  3.125000E+00  0.000000E+00
  1.171875E+00  3.515625E+00  0.000000E+00
  1.171875E+00  3.906250E+00  0.000000E+00
  1.171875E+00  4.296875E+00  0.000000E+00
  1.171875E+00  4.687500E+00  0.000000E+00
  1.171875E+00  5.078125E+00  0.000000E+00
  1.171875E+00  5.468750E+00  0.000000E+00
  1.171875E+00  5.859375E+00  0.000000E+00
  1.171875E+00  6.250000E+00  0.000000E+00
  1.171875E+00  6.640625E+00  0.000000E+00
  1.171875E+00  7.031250E+00  0.000000E+00
  1.171875E+00  7.421875E+00  0.000000E+00
  1.171875E+00  7.812500E+00  0.000000E+00
  1.171875E+00  8.203125E+00  0.000000E+00
  1.171875E+00  8.593750E+00  0.000000E+00
  1.171875E+00  8.984375E+00  0.000000E+00
  1.171875E+00  9.375000E+00  0.000000E+00
  1.171875E+00  9.765625E+00  0.000000E+00
  1.171875E+00  1.015625E+01  0.000000E+00
  1.171875E+00  1.054688E+01  0.000000E+00
  1.171875E+00  1.093750E+01  0.000000E+00
  1.171875E+00  1.132812E+01  0.000000E+00
  1.171875E+00  1.171875E+01  0.000000E+00
  1.171875E+00  1.210938E+01  0.000000E+00
  1.171875E+00  1.250000E+01  0.000000E+00
  1.171875E+00  1.289062E+01  0.000000E+00
  1.171875E+00  1.328125E+01  0.000000E+00
  1.171875E+00  1.367188E+01  0.000000E+00
  1.171875E+00  1.406250E+01  0.000000E+00
  1.171875E+00  1.445312E+01  0.000000E+00
[...]
POINT_DATA   4096
SCALARS CON  float  1
LOOKUP_TABLE default
  4.394246E-01
  4.378981E-01
  4.433579E-01
  4.424568E-01
  4.427902E-01
  4.360625E-01
  4.365150E-01
  4.360218E-01
  4.419804E-01
  4.405128E-01
  4.408445E-01
  4.355956E-01
  4.371644E-01
  4.351556E-01
  4.378550E-01
  4.352661E-01
  4.388654E-01
  4.388484E-01
  4.430762E-01
  4.396350E-01
  4.392728E-01
  4.340574E-01
  4.350399E-01
  4.319353E-01
  4.339305E-01
  4.306625E-01
  4.326383E-01
  4.315473E-01
  4.381540E-01
  4.402308E-01
  4.436472E-01
  4.373292E-01
  4.355323E-01
  4.329459E-01
  4.391244E-01
  4.395556E-01
  4.411890E-01
  4.352558E-01
  4.347467E-01
  4.312333E-01
  4.341926E-01
  4.322467E-01
  4.344093E-01
  4.312318E-01
  4.336043E-01
  4.314555E-01
  4.345434E-01
  4.343344E-01
  4.415378E-01
  4.430144E-01
  4.444972E-01
  4.365119E-01
  4.341114E-01
  4.307285E-01
  4.360351E-01
  4.387461E-01
  4.470497E-01
  4.477922E-01
  4.489764E-01
  4.424914E-01
  4.423888E-01
  4.397556E-01
  4.423013E-01
  4.383459E-01
  4.392805E-01
  4.388804E-01
  4.464360E-01
  4.483526E-01
  4.481021E-01
  4.385001E-01
  4.348051E-01
  4.328085E-01
  4.386233E-01
  4.385433E-01
  4.395950E-01
  4.362577E-01
  4.392213E-01
  4.381215E-01
  4.389113E-01
  4.342048E-01
  4.361786E-01
  4.376545E-01
  4.441503E-01
  4.430330E-01
  4.418822E-01
  4.347881E-01
  4.336923E-01
  4.314762E-01
  4.352985E-01
  4.343520E-01
  4.362145E-01
  4.338572E-01
  4.376424E-01
  4.385298E-01
  4.421114E-01
  4.381686E-01
  4.372606E-01
  4.340211E-01
  4.372612E-01
  4.361103E-01
  4.374626E-01
  4.337693E-01
  4.353208E-01
  4.337798E-01
  4.359839E-01
  4.320686E-01
  4.313226E-01
  4.275087E-01
  4.299857E-01
  4.291573E-01
  4.329025E-01
  4.345174E-01
  4.432222E-01
  4.464887E-01
  4.475544E-01
  4.385151E-01
  4.346224E-01
  4.323983E-01
  4.395470E-01
  4.438248E-01
  4.504004E-01
  4.485522E-01
  4.468286E-01
  4.396176E-01
  4.393945E-01
  4.383260E-01
  4.418075E-01
  4.387190E-01
  4.326239E-01
  4.378588E-01
  4.468645E-01
  4.498534E-01
  4.475849E-01
  4.391704E-01
  4.352480E-01
  4.344022E-01
  4.382149E-01
  4.389212E-01
  4.398891E-01
  4.385748E-01
  4.400990E-01
  4.394150E-01
  4.396115E-01
  4.372658E-01
  4.383826E-01
  4.393730E-01
  4.426653E-01
  4.419394E-01
  4.409576E-01
  4.368823E-01
  4.354706E-01
  4.335015E-01
  4.348982E-01
  4.343114E-01
  4.348743E-01
  4.330377E-01
  4.342816E-01
  4.343435E-01
  4.355355E-01
  4.329049E-01
  4.325799E-01
  4.329662E-01
  4.377282E-01
  4.393927E-01
  4.397499E-01
  4.358243E-01
  4.346006E-01
  4.331308E-01
  4.342554E-01
  4.319029E-01
  4.299028E-01
  4.260353E-01
  4.266044E-01
  4.278722E-01
  4.329512E-01
  4.373427E-01
  4.446035E-01
  4.474871E-01
  4.466545E-01
  4.392086E-01
  4.349986E-01
  4.337078E-01
  4.386457E-01
  4.430520E-01
  4.488050E-01
  4.492191E-01
  4.466862E-01
  4.386371E-01
  4.334446E-01
  4.294135E-01
  4.297399E-01
  4.290635E-01
  4.320740E-01
  4.388237E-01
  4.458650E-01
  4.503559E-01
  4.453790E-01
  4.375202E-01
  4.306975E-01
  4.313067E-01
  4.339053E-01
  4.376819E-01
  4.384981E-01
  4.408404E-01
  4.419001E-01
  4.430106E-01
  4.399769E-01
  4.378021E-01
  4.363670E-01
  4.393794E-01
  4.413616E-01
  4.428237E-01
  4.403800E-01
  4.389046E-01
  4.370168E-01
  4.382144E-01
  4.385048E-01
  4.395906E-01
  4.373974E-01
  4.354244E-01
  4.323583E-01
  4.330257E-01
  4.342228E-01
  4.370878E-01
  4.369045E-01
  4.370625E-01
  4.355773E-01
  4.357556E-01
  4.341538E-01
  4.345448E-01
  4.350723E-01
  4.381794E-01
  4.378498E-01
  4.355416E-01
  4.305539E-01
  4.298844E-01
  4.312027E-01
  4.347850E-01
  4.353803E-01
  4.374004E-01
  4.396187E-01
  4.433923E-01
  4.417693E-01
  4.378213E-01
  4.333693E-01
  4.356064E-01
  4.404163E-01
  4.468580E-01
  4.487492E-01
  4.481432E-01
  4.423185E-01
  4.366519E-01
  4.311765E-01
  4.302654E-01
  4.294642E-01
  4.306279E-01
  4.295441E-01
  4.394498E-01
  4.432041E-01
  4.469066E-01
  4.390905E-01
  4.350072E-01
  4.287142E-01
  4.316927E-01
  4.313709E-01
  4.368339E-01
  4.369951E-01
  4.419783E-01
  4.400697E-01
  4.417804E-01
  4.373333E-01
  4.389110E-01
  4.365384E-01
  4.403400E-01
  4.383544E-01
  4.409035E-01
  4.380212E-01
  4.408933E-01
  4.379263E-01
  4.391216E-01
  4.345637E-01
  4.361785E-01
  4.330278E-01
  4.345751E-01
  4.301895E-01
  4.322751E-01
  4.312337E-01
  4.362641E-01
  4.345386E-01
  4.369168E-01
  4.344345E-01
  4.379470E-01
  4.352098E-01
  4.367250E-01
  4.336013E-01
  4.371898E-01
  4.347774E-01
  4.354455E-01
  4.302667E-01
  4.332336E-01
  4.342869E-01
  4.407717E-01
  4.385345E-01
  4.389867E-01
  4.347311E-01
  4.376453E-01
  4.349798E-01
  4.360939E-01
  4.320269E-01
  4.355133E-01
  4.355535E-01
  4.413038E-01
  4.411089E-01
  4.448259E-01
  4.404830E-01
  4.389486E-01
  4.312803E-01
  4.298996E-01
  4.249809E-01
  4.280320E-01
  4.346446E-01
  4.410380E-01
  4.411617E-01
  4.443576E-01
  4.366746E-01
  4.335869E-01
  4.262049E-01
  4.286043E-01
  4.272958E-01
  4.335167E-01
  4.338930E-01
  4.402442E-01
  4.385244E-01
  4.406523E-01
  4.348218E-01
  4.361336E-01
  4.337766E-01
  4.399424E-01
  4.395654E-01
  4.435674E-01
  4.394988E-01
  4.413236E-01
  4.364470E-01
  4.371949E-01
  4.317400E-01
  4.343903E-01
  4.323500E-01
  4.359829E-01
  4.317243E-01
  4.348225E-01
  4.351085E-01
  4.429622E-01
  4.406233E-01
  4.397896E-01
  4.319907E-01
  4.336614E-01
  4.316331E-01
  4.365998E-01
  4.355916E-01
  4.407777E-01
  4.369943E-01
  4.362756E-01
  4.301441E-01
  4.360468E-01
  4.401739E-01
  4.483918E-01
  4.430266E-01
  4.394764E-01
  4.313269E-01
  4.339821E-01
  4.321452E-01
  4.352714E-01
  4.312474E-01
  4.350911E-01
  4.342383E-01
  4.392492E-01
  4.362547E-01
  4.387450E-01
  4.351673E-01
  4.385512E-01
  4.357193E-01
  4.386427E-01
  4.344501E-01
  4.368072E-01
  4.344266E-01
  4.389965E-01
  4.383925E-01
  4.398715E-01
  4.349836E-01
  4.346173E-01
  4.309406E-01
  4.323265E-01
  4.298320E-01
  4.333123E-01
  4.339577E-01
  4.385102E-01
  4.361166E-01
  4.364646E-01
  4.331061E-01
  4.364084E-01
  4.370853E-01
  4.424906E-01
  4.420760E-01
  4.442316E-01
  4.408319E-01
  4.414793E-01
  4.362630E-01
  4.334144E-01
  4.262594E-01
  4.272183E-01
  4.280147E-01
  4.339591E-01
  4.331862E-01
  4.359523E-01
  4.362385E-01
  4.418452E-01
  4.398360E-01
  4.387584E-01
  4.340624E-01
  4.374584E-01
  4.377917E-01
  4.407925E-01
  4.377387E-01
  4.390315E-01
  4.352297E-01
  4.345798E-01
  4.304895E-01
  4.352220E-01
  4.396894E-01
  4.477156E-01
  4.452361E-01
  4.418390E-01
  4.338854E-01
  4.341708E-01
  4.328605E-01
  4.357059E-01
  4.327212E-01
  4.338220E-01
  4.308946E-01
  4.327546E-01
  4.307764E-01
  4.343844E-01
  4.346650E-01
  4.394887E-01
  4.384404E-01
  4.396154E-01
  4.350393E-01
  4.358137E-01
  4.362470E-01
  4.363098E-01
  4.362593E-01
  4.387429E-01
  4.380129E-01
  4.378563E-01
  4.351537E-01
  4.347136E-01
  4.330268E-01
  4.346564E-01
  4.354928E-01
  4.382310E-01
  4.373678E-01
  4.370081E-01
  4.347616E-01
  4.364333E-01
  4.386127E-01
  4.441747E-01
  4.464839E-01
  4.474679E-01
  4.434291E-01
  4.406311E-01
  4.361237E-01
  4.334851E-01
  4.292722E-01
  4.297666E-01
  4.316797E-01
  4.361597E-01
  4.364468E-01
  4.381772E-01
  4.405702E-01
  4.463231E-01
  4.460860E-01
  4.424302E-01
  4.363561E-01
  4.367157E-01
  4.384048E-01
  4.416247E-01
  4.411632E-01
  4.418633E-01
  4.391142E-01
  4.365310E-01
  4.328112E-01
  4.355187E-01
  4.400317E-01
  4.454019E-01
  4.435858E-01
  4.400262E-01
  4.353449E-01
  4.360678E-01
  4.362730E-01
  4.370136E-01
  4.343572E-01
  4.347472E-01
  4.348890E-01
  4.367678E-01
  4.346305E-01
  4.336301E-01
  4.324329E-01
  4.361184E-01
  4.389585E-01
  4.423421E-01
  4.409969E-01
  4.397159E-01
  4.307338E-01
  4.322401E-01
  4.339650E-01
  4.373316E-01
  4.387772E-01
  4.409392E-01
  4.411153E-01
  4.413098E-01
  4.392181E-01
  4.391799E-01
  4.392139E-01
  4.402464E-01
  4.381962E-01
  4.369660E-01
  4.362520E-01
  4.391560E-01
  4.417296E-01
  4.451384E-01
  4.455719E-01
  4.449685E-01
  4.414219E-01
  4.393138E-01
  4.364574E-01
  4.345123E-01
  4.311599E-01
  4.312459E-01
  4.331426E-01
  4.370508E-01
  4.374637E-01
  4.376969E-01
  4.380329E-01
  4.412916E-01
  4.418588E-01
  4.413302E-01
  4.399951E-01
  4.425844E-01
  4.441347E-01
  4.439821E-01
  4.399101E-01
  4.375284E-01
  4.355641E-01
  4.357376E-01
  4.346479E-01
  4.353676E-01
  4.357704E-01
  4.377561E-01
  4.373945E-01
  4.372889E-01
  4.363595E-01
  4.381699E-01
  4.388011E-01
  4.390231E-01
  4.365173E-01
  4.360776E-01
  4.362580E-01
  4.384634E-01
  4.380317E-01
  4.371743E-01
  4.348187E-01
  4.350628E-01
  4.349094E-01
  4.354650E-01
  4.334470E-01
  4.322929E-01
  4.310931E-01
  4.311599E-01
  4.333455E-01
  4.381007E-01
  4.402460E-01
  4.413919E-01
  4.404068E-01
  4.406018E-01
  4.397262E-01
  4.403247E-01
  4.402464E-01
  4.412857E-01
  4.401892E-01
  4.392910E-01
  4.371755E-01
  4.372261E-01
  4.377664E-01
  4.410473E-01
  4.430632E-01
  4.436680E-01
  4.399786E-01
  4.369204E-01
  4.347514E-01
  4.357394E-01
  4.362369E-01
  4.384240E-01
  4.400070E-01
  4.417578E-01
  4.398240E-01
  4.381734E-01
  4.376866E-01
  4.409029E-01
  4.420428E-01
  4.413694E-01
  4.387605E-01
  4.394571E-01
  4.403266E-01
  4.409153E-01
  4.383128E-01
  4.367296E-01
  4.351040E-01
  4.356956E-01
  4.358563E-01
  4.373818E-01
  4.367174E-01
  4.355156E-01
  4.326123E-01
  4.327138E-01
  4.347384E-01
  4.395020E-01
  4.412621E-01
  4.405635E-01
  4.372450E-01
  4.376944E-01
  4.407421E-01
  4.453575E-01
  4.447471E-01
  4.407335E-01
  4.347677E-01
  4.330478E-01
  4.335737E-01
  4.361429E-01
  4.358212E-01
  4.343412E-01
  4.288479E-01
  4.304963E-01
  4.328819E-01
  4.363170E-01
  4.378832E-01
  4.397586E-01
  4.403889E-01
  4.411117E-01
  4.399603E-01
  4.400744E-01
  4.402399E-01
  4.410393E-01
  4.392231E-01
  4.374506E-01
  4.355832E-01
  4.360268E-01
  4.364460E-01
  4.385012E-01
  4.397651E-01
  4.406349E-01
  4.384071E-01
  4.362089E-01
  4.338947E-01
  4.338742E-01
  4.342641E-01
  4.372005E-01
  4.401677E-01
  4.426719E-01
  4.407521E-01
  4.372881E-01
  4.335912E-01
  4.333808E-01
  4.338912E-01
  4.357479E-01
  4.373164E-01
  4.405585E-01
  4.416705E-01
  4.403740E-01
  4.352497E-01
  4.312003E-01
  4.292590E-01
  4.318842E-01
  4.350845E-01
  4.375812E-01
  4.360681E-01
  4.338994E-01
  4.318989E-01
  4.336018E-01
  4.367639E-01
  4.410562E-01
  4.419348E-01
  4.405049E-01
  4.369396E-01
  4.362499E-01
  4.379053E-01
  4.420914E-01
  4.436052E-01
  4.426186E-01
  4.387385E-01
  4.365284E-01
  4.348721E-01
  4.343469E-01
  4.320007E-01
  4.302919E-01
  4.326508E-01
  4.324913E-01
  4.335814E-01
  4.368542E-01
  4.379930E-01
  4.386820E-01
  4.372439E-01
  4.368922E-01
  4.357840E-01
  4.367391E-01
  4.374703E-01
  4.394205E-01
  4.388195E-01
  4.375974E-01
  4.344838E-01
  4.336001E-01
  4.339177E-01
  4.378910E-01
  4.414002E-01
  4.437985E-01
  4.410685E-01
  4.372486E-01
  4.331696E-01
  4.329655E-01
  4.342272E-01
  4.385656E-01
  4.421575E-01
  4.448490E-01
  4.425637E-01
  4.391624E-01
  4.356834E-01
  4.359688E-01
  4.359252E-01
  4.359486E-01
  4.343117E-01
  4.351781E-01
  4.360737E-01
  4.373605E-01
  4.354393E-01
  4.334829E-01
  4.310117E-01
  4.319856E-01
  4.342405E-01
  4.381969E-01
  4.388224E-01
  4.378805E-01
  4.352835E-01
  4.361523E-01
  4.384420E-01
  4.419056E-01
  4.411384E-01
  4.382914E-01
  4.340279E-01
  4.340820E-01
  4.366660E-01
  4.414210E-01
  4.425692E-01
  4.417206E-01
  4.388977E-01
  4.389930E-01
  4.394812E-01
  4.405893E-01
  4.384726E-01
  4.360102E-01
  4.309498E-01
  4.336789E-01
  4.339541E-01
  4.365571E-01
  4.366694E-01
  4.392103E-01
  4.381219E-01
  4.379246E-01
  4.346352E-01
  4.354441E-01
  4.356893E-01
  4.383445E-01
  4.362843E-01
  4.353657E-01
  4.329476E-01
  4.353070E-01
  4.365710E-01
  4.406355E-01
  4.416391E-01
  4.439046E-01
  4.415144E-01
  4.397052E-01
  4.344738E-01
  4.324907E-01
  4.301970E-01
  4.334602E-01
  4.363108E-01
  4.411991E-01
  4.405043E-01
  4.393374E-01
  4.349993E-01
  4.347640E-01
  4.335369E-01
  4.353835E-01
  4.350387E-01
  4.377942E-01
  4.376771E-01
  4.383902E-01
  4.346422E-01
  4.330036E-01
  4.303286E-01
  4.325321E-01
  4.335139E-01
  4.365230E-01
  4.358211E-01
  4.374449E-01
  4.372584E-01
  4.402028E-01
  4.400977E-01
  4.408684E-01
  4.370900E-01
  4.350613E-01
  4.314167E-01
  4.320645E-01
  4.317947E-01
  4.352862E-01
  4.368594E-01
  4.407687E-01
  4.412557E-01
  4.430270E-01
  4.403623E-01
  4.382845E-01
  4.331184E-01
  4.321105E-01
  4.343841E-01
  4.359859E-01
  4.351765E-01
  4.379829E-01
  4.380418E-01
  4.397268E-01
  4.367568E-01
  4.357037E-01
  4.323993E-01
  4.335935E-01
  4.335137E-01
  4.365595E-01
  4.354960E-01
  4.357973E-01
  4.332359E-01
  4.350449E-01
  4.356390E-01
  4.397963E-01
  4.409584E-01
  4.439862E-01
  4.421212E-01
  4.409314E-01
  4.359763E-01
  4.346371E-01
  4.320569E-01
  4.340040E-01
  4.345065E-01
  4.382354E-01
  4.380607E-01
  4.394169E-01
  4.379507E-01
  4.402587E-01
  4.393144E-01
  4.391577E-01
  4.348452E-01
  4.344654E-01
  4.332636E-01
  4.359026E-01
  4.356563E-01
  4.379075E-01
  4.366267E-01
  4.373231E-01
  4.349481E-01
  4.361861E-01
  4.355457E-01
  4.380305E-01
  4.372285E-01
  4.387106E-01
  4.367948E-01
  4.368455E-01
  4.330573E-01
  4.322692E-01
  4.304964E-01
  4.337651E-01
  4.349880E-01
  4.382378E-01
  4.374893E-01
  4.392701E-01
  4.385594E-01
  4.406676E-01
  4.388368E-01
  4.385999E-01
  4.353622E-01
  4.358925E-01
  4.347427E-01
  4.366283E-01
  4.357595E-01
  4.358744E-01
  4.364633E-01
  4.387093E-01
  4.389138E-01
  4.380713E-01
  4.353212E-01
  4.344144E-01
  4.340811E-01
  4.348930E-01
  4.337694E-01
  4.335259E-01
  4.341601E-01
  4.373492E-01
  4.387756E-01
  4.389647E-01
  4.377050E-01
  4.390671E-01
  4.406460E-01
  4.417423E-01
  4.390600E-01
  4.355797E-01
  4.313760E-01
  4.296443E-01
  4.292485E-01
  4.319421E-01
  4.341993E-01
  4.358664E-01
  4.350194E-01
  4.352362E-01
  4.354343E-01
  4.367646E-01
  4.368260E-01
  4.375827E-01
  4.368334E-01
  4.361980E-01
  4.347453E-01
  4.356380E-01
  4.367317E-01
  4.380756E-01
  4.364850E-01
  4.347713E-01
  4.333092E-01
  4.348379E-01
  4.359057E-01
  4.364117E-01
  4.342366E-01
  4.324379E-01
  4.305207E-01
  4.314605E-01
  4.334629E-01
  4.367742E-01
  4.375069E-01
  4.374231E-01
  4.363781E-01
  4.373553E-01
  4.375369E-01
  4.370796E-01
  4.337084E-01
  4.310570E-01
  4.297106E-01
  4.322240E-01
  4.424949E-01
  4.394566E-01
  4.372818E-01
  4.351110E-01
  4.366549E-01
  4.366012E-01
  4.375129E-01
  4.360686E-01
  4.362795E-01
  4.345455E-01
  4.346555E-01
  4.333630E-01
  4.343296E-01
  4.341097E-01
  4.367227E-01
  4.380960E-01
  4.401027E-01
  4.384290E-01
  4.386070E-01
  4.389783E-01
  4.420555E-01
  4.414510E-01
  4.400872E-01
  4.360344E-01
  4.341929E-01
  4.311047E-01
  4.309623E-01
  4.310086E-01
  4.339134E-01
  4.341140E-01
  4.351159E-01
  4.349881E-01
  4.375533E-01
  4.374739E-01
  4.375190E-01
  4.351475E-01
  4.350011E-01
  4.337478E-01
  4.354797E-01
  4.367157E-01
  4.394705E-01
  4.382763E-01
  4.373095E-01
  4.353913E-01
  4.370858E-01
  4.369698E-01
  4.365666E-01
  4.327229E-01
  4.313274E-01
  4.300381E-01
  4.319024E-01
  4.329130E-01
  4.370949E-01
  4.402964E-01
  4.436744E-01
  4.415821E-01
  4.385305E-01
  4.335851E-01
  4.319253E-01
  4.297782E-01
  4.305910E-01
  4.316432E-01
  4.367352E-01
  4.401657E-01
  4.452422E-01
  4.419509E-01
  4.383812E-01
  4.338408E-01
  4.344955E-01
  4.348562E-01
  4.376779E-01
  4.373978E-01
  4.384041E-01
  4.365269E-01
  4.365051E-01
  4.336825E-01
  4.330507E-01
  4.319853E-01
  4.365099E-01
  4.404418E-01
  4.441393E-01
  4.412121E-01
  4.392186E-01
  4.375847E-01
  4.407195E-01
  4.405108E-01
  4.393224E-01
  4.339928E-01
  4.313607E-01
  4.280005E-01
  4.290070E-01
  4.300909E-01
  4.338378E-01
  4.328074E-01
  4.316260E-01
  4.293986E-01
  4.330375E-01
  4.365006E-01
  4.411645E-01
  4.407841E-01
  4.399878E-01
  4.355780E-01
  4.341538E-01
  4.325521E-01
  4.346653E-01
  4.344033E-01
  4.358317E-01
  4.354234E-01
  4.381289E-01
  4.378847E-01
  4.373885E-01
  4.328074E-01
  4.314809E-01
  4.306174E-01
  4.339525E-01
  4.356720E-01
  4.397473E-01
  4.407581E-01
  4.415558E-01
  4.372413E-01
  4.344548E-01
  4.308263E-01
  4.306977E-01
  4.283596E-01
  4.287531E-01
  4.295346E-01
  4.360413E-01
  4.411855E-01
  4.497247E-01
  4.447430E-01
  4.396370E-01
  4.359372E-01
  4.352685E-01
  4.340890E-01
  4.337810E-01
  4.335307E-01
  4.352211E-01
  4.357842E-01
  4.359251E-01
  4.340242E-01
  4.328265E-01
  4.319123E-01
  4.341590E-01
  4.372367E-01
  4.404353E-01
  4.401351E-01
  4.391956E-01
  4.380526E-01
  4.387058E-01
  4.377928E-01
  4.364747E-01
  4.340261E-01
  4.330760E-01
  4.318842E-01
  4.326487E-01
  4.339914E-01
  4.361810E-01
  4.353506E-01
  4.342156E-01
  4.343803E-01
  4.385282E-01
  4.417056E-01
  4.424743E-01
  4.393372E-01
  4.365623E-01
  4.342416E-01
  4.346108E-01
  4.350053E-01
  4.355708E-01
  4.342397E-01
  4.348747E-01
  4.374576E-01
  4.418034E-01
  4.417961E-01
  4.377755E-01
  4.315978E-01
  4.297568E-01
  4.313654E-01
  4.352551E-01
  4.370919E-01
  4.389296E-01
  4.398745E-01
  4.405897E-01
  4.377356E-01
  4.340622E-01
  4.304276E-01
  4.297571E-01
  4.296630E-01
  4.319680E-01
  4.361361E-01
  4.435400E-01
  4.487736E-01
  4.446157E-01
  4.425407E-01
  4.390156E-01
  4.355921E-01
  4.344679E-01
  4.338882E-01
  4.340150E-01
  4.336024E-01
  4.341066E-01
  4.345437E-01
  4.352227E-01
  4.338823E-01
  4.317070E-01
  4.297559E-01
  4.312578E-01
  4.344836E-01
  4.373673E-01
  4.365992E-01
  4.343718E-01
  4.325278E-01
  4.336281E-01
  4.353612E-01
  4.366152E-01
  4.354261E-01
  4.336984E-01
  4.318909E-01
  4.325813E-01
  4.348329E-01
  4.374285E-01
  4.366117E-01
  4.344299E-01
  4.338081E-01
  4.376084E-01
  4.418244E-01
  4.436564E-01
  4.413426E-01
  4.381414E-01
  4.350618E-01
  4.338466E-01
  4.330039E-01
  4.330681E-01
  4.330568E-01
  4.347757E-01
  4.372476E-01
  4.399399E-01
  4.393239E-01
  4.359746E-01
  4.313254E-01
  4.296718E-01
  4.307170E-01
  4.337158E-01
  4.356771E-01
  4.372228E-01
  4.371747E-01
  4.361433E-01
  4.335996E-01
  4.328460E-01
  4.341409E-01
  4.369472E-01
  4.375091E-01
  4.367920E-01
  4.363062E-01
  4.390523E-01
  4.425530E-01
  4.423336E-01
  4.387392E-01
  4.383829E-01
  4.357704E-01
  4.367436E-01
  4.338072E-01
  4.334824E-01
  4.303360E-01
  4.314591E-01
  4.302980E-01
  4.328367E-01
  4.322185E-01
  4.343830E-01
  4.326781E-01
  4.338489E-01
  4.318618E-01
  4.331298E-01
  4.308922E-01
  4.316050E-01
  4.296215E-01
  4.323806E-01
  4.336669E-01
  4.386276E-01
  4.389037E-01
  4.401742E-01
  4.371498E-01
  4.384022E-01
  4.380897E-01
  4.408367E-01
  4.384906E-01
  4.389915E-01
  4.386246E-01
  4.432898E-01
  4.425608E-01
  4.407961E-01
  4.341145E-01
  4.329177E-01
  4.318363E-01
  4.355482E-01
  4.354673E-01
  4.370555E-01
  4.346565E-01
  4.366566E-01
  4.372837E-01
  4.407650E-01
  4.377338E-01
  4.348957E-01
  4.291159E-01
  4.294990E-01
  4.293201E-01
  4.329181E-01
  4.327221E-01
  4.356689E-01
  4.357908E-01
  4.387503E-01
  4.374216E-01
  4.392688E-01
  4.392312E-01
  4.432473E-01
  4.427988E-01
  4.436854E-01
  4.409201E-01
  4.424837E-01
  4.413351E-01
  4.356148E-01
  4.340886E-01
  4.374993E-01
  4.342255E-01
  4.369133E-01
  4.342581E-01
  4.372433E-01
  4.329836E-01
  4.334962E-01
  4.289639E-01
  4.324125E-01
  4.314810E-01
  4.364276E-01
  4.350339E-01
  4.389864E-01
  4.358158E-01
  4.366529E-01
  4.303511E-01
  4.303255E-01
  4.267728E-01
  4.323510E-01
  4.343426E-01
  4.413914E-01
  4.391699E-01
  4.400043E-01
  4.350519E-01
  4.384210E-01
  4.378059E-01
  4.420546E-01
  4.375022E-01
  4.377877E-01
  4.344517E-01
  4.394142E-01
  4.377543E-01
  4.393104E-01
  4.339332E-01
  4.356526E-01
  4.326889E-01
  4.354060E-01
  4.319531E-01
  4.351641E-01
  4.338081E-01
  4.387100E-01
  4.367659E-01
  4.390773E-01
  4.342819E-01
  4.352963E-01
  4.312653E-01
  4.338145E-01