# vtk DataFile Version 2.0
title
ASCII
DATASET STRUCTURED_GRID
DIMENSIONS   64   64    1
POINTS   4096  float
  0.000000E+00  0.000000E+00  0.000000E+00
  0.000000E+00  3.906250E-01  0.000000E+00
  0.000000E+00  7.812500E-01  0.000000E+00
  0.000000E+00  1.171875E+00  0.000000E+00
  0.000000E+00  1.562500E+00  0.000000E+00
  0.000000E+00  1.953125E+00  0.000000E+00
  0.000000E+00  2.343750E+00  0.000000E+00
  0.000000E+00  2.734375E+00  0.000000E+00
  0.000000E+00  3.125000E+00  0.000000E+00
  0.000000E+00  3.515625E+00  0.000000E+00
  0.000000E+00  3.906250E+00  0.000000E+00
  0.000000E+00  4.296875E+00  0.000000E+00
  0.000000E+00  4.687500E+00  0.000000E+00
  0.000000E+00  5.078125E+00  0.000000E+00
  0.000000E+00  5.468750E+00  0.000000E+00
  0.000000E+00  5.859375E+00  0.000000E+00
  0.000000E+00  6.250000E+00  0.000000E+00
  0.000000E+00  6.640625E+00  0.000000E+00
  0.000000E+00  7.031250E+00  0.000000E+00
  0.000000E+00  7.421875E+00  0.000000E+00
  0.000000E+00  7.812500E+00  0.000000E+00
  0.000000E+00  8.203125E+00  0.000000E+00
  0.000000E+00  8.593750E+00  0.000000E+00
  0.000000E+00  8.984375E+00  0.000000E+00
  0.000000E+00  9.375000E+00  0.000000E+00
  0.000000E+00  9.765625E+00  0.000000E+00
  0.000000E+00  1.015625E+01  0.000000E+00
  0.000000E+00  1.054688E+01  0.000000E+00
  0.000000E+00  1.093750E+01  0.000000E+00
  0.000000E+00  1.132812E+01  0.000000E+00
  0.000000E+00  1.171875E+01  0.000000E+00
  0.000000E+00  1.210938E+01  0.000000E+00
  0.000000E+00  1.250000E+01  0.000000E+00
  0.000000E+00  1.289062E+01  0.000000E+00
  0.000000E+00  1.328125E+01  0.000000E+00
  0.000000E+00  1.367188E+01  0.000000E+00
  0.000000E+00  1.406250E+01  0.000000E+00
  0.000000E+00  1.445312E+01  0.000000E+00
  0.000000E+00  1.484375E+01  0.000000E+00
  0.000000E+00  1.523438E+01  0.000000E+00
  0.000000E+00  1.562500E+01  0.000000E+00
  0.000000E+00  1.601562E+01  0.000000E+00
  0.000000E+00  1.640625E+01  0.000000E+00
  0.000000E+00  1.679688E+01  0.000000E+00
  0.000000E+00  1.718750E+01  0.000000E+00
  0.000000E+00  1.757812E+01  0.000000E+00
  0.000000E+00  1.796875E+01  0.000000E+00
  0.000000E+00  1.835938E+01  0.000000E+00
  0.000000E+00  1.875000E+01  0.000000E+00
  0.000000E+00  1.914062E+01  0.000000E+00
  0.000000E+00  1.953125E+01  0.000000E+00
  0.000000E+00  1.992188E+01  0.000000E+00
  0.000000E+00  2.031250E+01  0.000000E+00
  0.000000E+00  2.070312E+01  0.000000E+00
  0.000000E+00  2.109375E+01  0.000000E+00
  0.000000E+00  2.148438E+01  0.000000E+00
  0.000000E+00  2.187500E+01  0.000000E+00
  0.000000E+00  2.226562E+01  0.000000E+00
  0.000000E+00  2.265625E+01  0.000000E+00
  0.000000E+00  2.304688E+01  0.000000E+00
  0.000000E+00  2.343750E+01  0.000000E+00
  0.000000E+00  2.382812E+01  0.000000E+00
  0.000000E+00  2.421875E+01  0.000000E+00
  0.000000E+00  2.460938E+01  0.000000E+00
  3.906250E-01  0.000000E+00  0.000000E+00
  3.906250E-01  3.906250E-01  0.000000E+00
  3.906250E-01  7.812500E-01  0.000000E+00
  3.906250E-01  1.171875E+00  0.000000E+00
  3.906250E-01  1.562500E+00  0.000000E+00
  3.906250E-01  1.953125E+00  0.000000E+00
  3.906250E-01  2.343750E+00  0.000000E+00
  3.906250E-01  2.734375E+00  0.000000E+00
  3.906250E-01  3.125000E+00  0.000000E+00
  3.906250E-01  3.515625E+00  0.000000E+00
  3.906250E-01  3.906250E+00  0.000000E+00
  3.906250E-01  4.296875E+00  0.000000E+00
  3.906250E-01  4.687500E+00  0.000000E+00
  3.906250E-01  5.078125E+00  0.000000E+00
  3.906250E-01  5.468750E+00  0.000000E+00
  3.906250E-01  5.859375E+00  0.000000E+00
  3.906250E-01  6.250000E+00  0.000000E+00
  3.906250E-01  6.640625E+00  0.000000E+00
  3.906250E-01  7.031250E+00  0.000000E+00
  3.906250E-01  7.421875E+00  0.000000E+00
  3.906250E-01  7.812500E+00  0.000000E+00
  3.906250E-01  8.203125E+00  0.000000E+00
  3.906250E-01  8.593750E+00  0.000000E+00
  3.906250E-01  8.984375E+00  0.000000E+00
  3.906250E-01  9.375000E+00  0.000000E+00
  3.906250E-01  9.765625E+00  0.000000E+00
  3.906250E-01  1.015625E+01  0.000000E+00
  3.906250E-01  1.054688E+01  0.000000E+00
  3.906250E-01  1.093750E+01  0.000000E+00
  3.906250E-01  1.132812E+01  0.000000E+00
  3.906250E-01  1.171875E+01  0.000000E+00
  3.906250E-01  1.210938E+01  0.000000E+00
  3.906250E-01  1.250000E+01  0.000000E+00
  3.906250E-01  1.289062E+01  0.000000E+00
  3.906250E-01  1.328125E+01  0.000000E+00
  3.906250E-01  1.367188E+01  0.000000E+00
  3.906250E-01  1.406250E+01  0.000000E+00
  3.906250E-01  1.445312E+01  0.000000E+00
  3.906250E-01  1.484375E+01  0.000000E+00
  3.906250E-01  1.523438E+01  0.000000E+00
  3.906250E-01  1.562500E+01  0.000000E+00
  3.906250E-01  1.601562E+01  0.000000E+00
  3.906250E-01  1.640625E+01  0.000000E+00
  3.906250E-01  1.679688E+01  0.000000E+00
  3.906250E-01  1.718750E+01  0.000000E+00
  3.906250E-01  1.757812E+01  0.000000E+00
  3.906250E-01  1.796875E+01  0.000000E+00
  3.906250E-01  1.835938E+01  0.000000E+00
  3.906250E-01  1.875000E+01  0.000000E+00
  3.906250E-01  1.914062E+01  0.000000E+00
  3.906250E-01  1.953125E+01  0.000000E+00
  3.906250E-01  1.992188E+01  0.000000E+00
  3.906250E-01  2.031250E+01  0.000000E+00
  3.906250E-01  2.070312E+01  0.000000E+00
  3.906250E-01  2.109375E+01  0.000000E+00
  3.906250E-01  2.148438E+01  0.000000E+00
  3.906250E-01  2.187500E+01  0.000000E+00
  3.906250E-01  2.226562E+01  0.000000E+00
  3.906250E-01  2.265625E+01  0.000000E+00
  3.906250E-01  2.304688E+01  0.000000E+00
  3.906250E-01  2.343750E+01  0.000000E+00
  3.906250E-01  2.382812E+01  0.000000E+00
  3.906250E-01  2.421875E+01  0.000000E+00
  3.906250E-01  2.460938E+01  0.000000E+00
  7.812500E-01  0.000000E+00  0.000000E+00
  7.812500E-01  3.906250E-01  0.000000E+00
  7.812500E-01  7.812500E-01  0.000000E+00
  7.812500E-01  1.171875E+00  0.000000E+00
  7.812500E-01  1.562500E+00  0.000000E+00
  7.812500E-01  1.953125E+00  0.000000E+00
  7.812500E-01  2.343750E+00  0.000000E+00
  7.812500E-01  2.734375E+00  0.000000E+00
  7.812500E-01  3.125000E+00  0.000000E+00
  7.812500E-01  3.515625E+00  0.000000E+00
  7.812500E-01  3.906250E+00  0.000000E+00
  7.812500E-01  4.296875E+00  0.000000E+00
  7.812500E-01  4.687500E+00  0.000000E+00
  7.812500E-01  5.078125E+00  0.000000E+00
  7.812500E-01  5.468750E+00  0.000000E+00
  7.812500E-01  5.859375E+00  0.000000E+00
  7.812500E-01  6.250000E+00  0.000000E+00
  7.812500E-01  6.640625E+00  0.000000E+00
  7.812500E-01  7.031250E+00  0.000000E+00
  7.812500E-01  7.421875E+00  0.000000E+00
  7.812500E-01  7.812500E+00  0.000000E+00
  7.812500E-01  8.203125E+00  0.000000E+00
  7.812500E-01  8.593750E+00  0.000000E+00
  7.812500E-01  8.984375E+00  0.000000E+00
  7.812500E-01  9.375000E+00  0.000000E+00
  7.812500E-01  9.765625E+00  0.000000E+00
  7.812500E-01  1.015625E+01  0.000000E+00
  7.812500E-01  1.054688E+01  0.000000E+00
  7.812500E-01  1.093750E+01  0.000000E+00
  7.812500E-01  1.132812E+01  0.000000E+00
  7.812500E-01  1.171875E+01  0.000000E+00
  7.812500E-01  1.210938E+01  0.000000E+00
  7.812500E-01  1.250000E+01  0.000000E+00
  7.812500E-01  1.289062E+01  0.000000E+00
  7.812500E-01  1.328125E+01  0.000000E+00
  7.812500E-01  1.367188E+01  0.000000E+00
  7.812500E-01  1.406250E+01  0.000000E+00
  7.812500E-01  1.445312E+01  0.000000E+00
  7.812500E-01  1.484375E+01  0.000000E+00
  7.812500E-01  1.523438E+01  0.000000E+00
  7.812500E-01  1.562500E+01  0.000000E+00
  7.812500E-01  1.601562E+01  0.000000E+00
  7.812500E-01  1.640625E+01  0.000000E+00
  7.812500E-01  1.679688E+01  0.000000E+00
  7.812500E-01  1.718750E+01  0.000000E+00
  7.812500E-01  1.757812E+01  0.000000E+00
  7.812500E-01  1.796875E+01  0.000000E+00
  7.812500E-01  1.835938E+01  0.000000E+00
  7.812500E-01  1.875000E+01  0.000000E+00
  7.812500E-01  1.914062E+01  0.000000E+00
  7.812500E-01  1.953125E+01  0.000000E+00
  7.812500E-01  1.992188E+01  0.000000E+00
  7.812500E-01  2.031250E+01  0.000000E+00
  7.812500E-01  2.070312E+01  0.000000E+00
  7.812500E-01  2.109375E+01  0.000000E+00
  7.812500E-01  2.148438E+01  0.000000E+00
  7.812500E-01  2.187500E+01  0.000000E+00
  7.812500E-01  2.226562E+01  0.000000E+00
  7.812500E-01  2.265625E+01  0.000000E+00
  7.812500E-01  2.304688E+01  0.000000E+00
  7.812500E-01  2.343750E+01  0.000000E+00
  7.812500E-01  2.382812E+01  0.000000E+00
  7.812500E-01  2.421875E+01  0.000000E+00
  7.812500E-01  2.460938E+01  0.000000E+00
  1.171875E+00  0.000000E+00  0.000000E+00
  1.171875E+00  3.906250E-01  0.000000E+00
  1.171875E+00  7.812500E-01  0.000000E+00
  1.171875E+00  1.171875E+00  0.000000E+00
  1.171875E+00  1.562500E+00  0.000000E+00
  1.171875E+00  1.953125E+00  0.000000E+00
  1.171875E+00  2.343750E+00  0.000000E+00
  1.171875E+00  2.734375E+00  0.000000E+00
  1.171875E+00  3.125000E+00  0.000000E+00
  1.171875E+00  3.515625E+00  0.000000E+00
  1.171875E+00  3.906250E+00  0.000000E+00
  1.171875E+00  4.296875E+00  0.000000E+00
  1.171875E+00  4.687500E+00  0.000000E+00
  1.171875E+00  5.078125E+00  0.000000E+00
  1.171875E+00  5.468750E+00  0.000000E+00
  1.171875E+00  5.859375E+00  0.000000E+00
  1.171875E+00  6.250000E+00  0.000000E+00
  1.171875E+00  6.640625E+00  0.000000E+00
  1.171875E+00  7.031250E+00  0.000000E+00
  1.171875E+00  7.421875E+00  0.000000E+00
  1.171875E+00  7.812500E+00  0.000000E+00
  1.171875E+00  8.203125E+00  0.000000E+00
  1.171875E+00  8.593750E+00  0.000000E+00
  1.171875E+00  8.984375E+00  0.000000E+00
  1.171875E+00  9.375000E+00  0.000000E+00
  1.171875E+00  9.765625E+00  0.000000E+00
  1.171875E+00  1.015625E+01  0.000000E+00
  1.171875E+00  1.054688E+01  0.000000E+00
  1.171875E+00  1.093750E+01  0.000000E+00
  1.171875E+00  1.132812E+01  0.000000E+00
  1.171875E+00  1.171875E+01  0.000000E+00
  1.171875E+00  1.210938E+01  0.000000E+00
  1.171875E+00  1.250000E+01  0.000000E+00
  1.171875E+00  1.289062E+01  0.000000E+00
  1.171875E+00  1.328125E+01  0.000000E+00
  1.171875E+00  1.367188E+01  0.000000E+00
  1.171875E+00  1.406250E+01  0.000000E+00
  1.171875E+00  1.445312E+01  0.000000E+00
[...]
POINT_DATA   4096
SCALARS CON  float  1
LOOKUP_TABLE default
  4.504880E-01
  4.485403E-01
  4.539331E-01
  4.538356E-01
  4.543701E-01
  4.469900E-01
  4.464817E-01
  4.462717E-01
  4.530648E-01
  4.521627E-01
  4.519819E-01
  4.463973E-01
  4.481138E-01
  4.467429E-01
  4.492782E-01
  4.459780E-01
  4.488559E-01
  4.492795E-01
  4.541657E-01
  4.511167E-01
  4.505569E-01
  4.453953E-01
  4.461839E-01
  4.430355E-01
  4.451543E-01
  4.424096E-01
  4.441219E-01
  4.423696E-01
  4.486051E-01
  4.515369E-01
  4.555539E-01
  4.487513E-01
  4.456377E-01
  4.430270E-01
  4.501375E-01
  4.512156E-01
  4.523036E-01
  4.462078E-01
  4.457710E-01
  4.422025E-01
  4.449728E-01
  4.437231E-01
  4.460711E-01
  4.424734E-01
  4.448769E-01
  4.436601E-01
  4.460286E-01
  4.440027E-01
  4.508019E-01
  4.539135E-01
  4.557895E-01
  4.471067E-01
  4.448101E-01
  4.425395E-01
  4.475950E-01
  4.494648E-01
  4.576531E-01
  4.590800E-01
  4.600696E-01
  4.533776E-01
  4.535791E-01
  4.516947E-01
  4.542348E-01
  4.500289E-01
  4.501553E-01
  4.491054E-01
  4.569021E-01
  4.603231E-01
  4.604171E-01
  4.499691E-01
  4.450206E-01
  4.434872E-01
  4.502192E-01
  4.503590E-01
  4.500471E-01
  4.461886E-01
  4.497819E-01
  4.499222E-01
  4.505305E-01
  4.451874E-01
  4.465605E-01
  4.485800E-01
  4.556971E-01
  4.552959E-01
  4.538428E-01
  4.460611E-01
  4.438117E-01
  4.414740E-01
  4.457667E-01
  4.458022E-01
  4.476871E-01
  4.451363E-01
  4.486548E-01
  4.501710E-01
  4.537885E-01
  4.492285E-01
  4.472925E-01
  4.445036E-01
  4.484658E-01
  4.476983E-01
  4.485858E-01
  4.449821E-01
  4.463124E-01
  4.446336E-01
  4.466353E-01
  4.432040E-01
  4.422679E-01
  4.382289E-01
  4.407188E-01
  4.407244E-01
  4.441442E-01
  4.450057E-01
  4.538119E-01
  4.587604E-01
  4.599406E-01
  4.497250E-01
  4.450547E-01
  4.436003E-01
  4.506273E-01
  4.542075E-01
  4.602856E-01
  4.591439E-01
  4.575565E-01
  4.501984E-01
  4.496357E-01
  4.492457E-01
  4.533426E-01
  4.505608E-01
  4.434979E-01
  4.480550E-01
  4.577628E-01
  4.616303E-01
  4.592908E-01
  4.499327E-01
  4.460396E-01
  4.459076E-01
  4.501058E-01
  4.500763E-01
  4.503796E-01
  4.489332E-01
  4.510448E-01
  4.507881E-01
  4.511362E-01
  4.483850E-01
  4.493687E-01
  4.505027E-01
  4.542087E-01
  4.534932E-01
  4.524846E-01
  4.480071E-01
  4.460977E-01
  4.437423E-01
  4.456677E-01
  4.456194E-01
  4.461705E-01
  4.438120E-01
  4.452926E-01
  4.458712E-01
  4.471818E-01
  4.437948E-01
  4.431163E-01
  4.438848E-01
  4.494304E-01
  4.509796E-01
  4.509049E-01
  4.468621E-01
  4.460333E-01
  4.444504E-01
  4.455493E-01
  4.434266E-01
  4.415541E-01
  4.368580E-01
  4.369803E-01
  4.386989E-01
  4.445029E-01
  4.488523E-01
  4.565565E-01
  4.601355E-01
  4.589420E-01
  4.499033E-01
  4.454031E-01
  4.449854E-01
  4.501939E-01
  4.535283E-01
  4.589554E-01
  4.599924E-01
  4.578310E-01
  4.490380E-01
  4.436494E-01
  4.404069E-01
  4.417683E-01
  4.408705E-01
  4.427180E-01
  4.488567E-01
  4.569752E-01
  4.618545E-01
  4.565108E-01
  4.476113E-01
  4.414995E-01
  4.430342E-01
  4.463120E-01
  4.492075E-01
  4.494906E-01
  4.514992E-01
  4.533078E-01
  4.544333E-01
  4.513732E-01
  4.487140E-01
  4.477591E-01
  4.507524E-01
  4.526967E-01
  4.534069E-01
  4.511315E-01
  4.497632E-01
  4.485567E-01
  4.498535E-01
  4.505668E-01
  4.511710E-01
  4.486871E-01
  4.460716E-01
  4.432284E-01
  4.438360E-01
  4.454613E-01
  4.481132E-01
  4.482157E-01
  4.483641E-01
  4.474018E-01
  4.473369E-01
  4.457094E-01
  4.454364E-01
  4.460880E-01
  4.495685E-01
  4.502722E-01
  4.475968E-01
  4.421584E-01
  4.409488E-01
  4.426061E-01
  4.459627E-01
  4.467152E-01
  4.483786E-01
  4.510452E-01
  4.550446E-01
  4.534486E-01
  4.481631E-01
  4.436494E-01
  4.467503E-01
  4.526559E-01
  4.583421E-01
  4.599423E-01
  4.595065E-01
  4.542308E-01
  4.476841E-01
  4.420145E-01
  4.414711E-01
  4.416288E-01
  4.421374E-01
  4.400725E-01
  4.503623E-01
  4.547131E-01
  4.584907E-01
  4.498039E-01
  4.453417E-01
  4.398655E-01
  4.438112E-01
  4.432530E-01
  4.481979E-01
  4.483441E-01
  4.535797E-01
  4.514778E-01
  4.530166E-01
  4.485854E-01
  4.503780E-01
  4.481307E-01
  4.520202E-01
  4.495589E-01
  4.513755E-01
  4.482960E-01
  4.520304E-01
  4.498973E-01
  4.512930E-01
  4.465106E-01
  4.481243E-01
  4.448586E-01
  4.460986E-01
  4.411012E-01
  4.428683E-01
  4.421671E-01
  4.480312E-01
  4.463756E-01
  4.482261E-01
  4.456195E-01
  4.496533E-01
  4.466939E-01
  4.472775E-01
  4.437967E-01
  4.483864E-01
  4.468538E-01
  4.473176E-01
  4.414481E-01
  4.444895E-01
  4.459689E-01
  4.526037E-01
  4.497122E-01
  4.491783E-01
  4.444915E-01
  4.482297E-01
  4.462674E-01
  4.470782E-01
  4.426769E-01
  4.469519E-01
  4.475348E-01
  4.528662E-01
  4.523093E-01
  4.565236E-01
  4.522003E-01
  4.500360E-01
  4.421142E-01
  4.412016E-01
  4.362840E-01
  4.388832E-01
  4.456442E-01
  4.526356E-01
  4.526684E-01
  4.559472E-01
  4.476112E-01
  4.445451E-01
  4.372312E-01
  4.401142E-01
  4.384734E-01
  4.447922E-01
  4.449195E-01
  4.514883E-01
  4.496347E-01
  4.521370E-01
  4.460269E-01
  4.473432E-01
  4.446414E-01
  4.511063E-01
  4.505046E-01
  4.544638E-01
  4.500080E-01
  4.524368E-01
  4.477945E-01
  4.485602E-01
  4.422939E-01
  4.452618E-01
  4.439885E-01
  4.485022E-01
  4.431536E-01
  4.451569E-01
  4.454736E-01
  4.549957E-01
  4.526227E-01
  4.506516E-01
  4.420210E-01
  4.449559E-01
  4.434060E-01
  4.475826E-01
  4.453564E-01
  4.516387E-01
  4.487093E-01
  4.473400E-01
  4.397153E-01
  4.465487E-01
  4.521182E-01
  4.609434E-01
  4.541990E-01
  4.493602E-01
  4.404890E-01
  4.445915E-01
  4.440987E-01
  4.474441E-01
  4.422637E-01
  4.462351E-01
  4.454840E-01
  4.503975E-01
  4.467635E-01
  4.496674E-01
  4.461330E-01
  4.497906E-01
  4.468108E-01
  4.498699E-01
  4.450958E-01
  4.476323E-01
  4.463402E-01
  4.507381E-01
  4.497035E-01
  4.505396E-01
  4.456545E-01
  4.454106E-01
  4.423985E-01
  4.435161E-01
  4.404389E-01
  4.435564E-01
  4.450112E-01
  4.498554E-01
  4.473344E-01
  4.471662E-01
  4.439648E-01
  4.470091E-01
  4.474984E-01
  4.527601E-01
  4.529505E-01
  4.550537E-01
  4.516584E-01
  4.524902E-01
  4.478048E-01
  4.440779E-01
  4.358802E-01
  4.367169E-01
  4.392102E-01
  4.463132E-01
  4.451264E-01
  4.461642E-01
  4.465560E-01
  4.535292E-01
  4.519043E-01
  4.488524E-01
  4.434266E-01
  4.480667E-01
  4.498435E-01
  4.520888E-01
  4.483588E-01
  4.499980E-01
  4.469450E-01
  4.453630E-01
  4.403594E-01
  4.451527E-01
  4.510179E-01
  4.598377E-01
  4.573649E-01
  4.526762E-01
  4.440908E-01
  4.449136E-01
  4.449580E-01
  4.476847E-01
  4.442219E-01
  4.450648E-01
  4.422560E-01
  4.433830E-01
  4.411616E-01
  4.447756E-01
  4.455727E-01
  4.508508E-01
  4.506700E-01
  4.515878E-01
  4.464637E-01
  4.470342E-01
  4.480436E-01
  4.470691E-01
  4.468902E-01
  4.491498E-01
  4.490822E-01
  4.489576E-01
  4.470448E-01
  4.461832E-01
  4.442841E-01
  4.452575E-01
  4.466890E-01
  4.493437E-01
  4.487065E-01
  4.476271E-01
  4.456440E-01
  4.471925E-01
  4.498792E-01
  4.551986E-01
  4.581667E-01
  4.587531E-01
  4.545630E-01
  4.514630E-01
  4.481084E-01
  4.451623E-01
  4.400677E-01
  4.393431E-01
  4.425154E-01
  4.481687E-01
  4.486853E-01
  4.485008E-01
  4.508799E-01
  4.576808E-01
  4.583569E-01
  4.528387E-01
  4.460276E-01
  4.471772E-01
  4.507690E-01
  4.532822E-01
  4.520739E-01
  4.528223E-01
  4.514836E-01
  4.480680E-01
  4.433516E-01
  4.454434E-01
  4.511135E-01
  4.569453E-01
  4.559303E-01
  4.518035E-01
  4.468441E-01
  4.471210E-01
  4.480816E-01
  4.483096E-01
  4.454853E-01
  4.455904E-01
  4.464825E-01
  4.479390E-01
  4.457212E-01
  4.440798E-01
  4.435201E-01
  4.477237E-01
  4.515141E-01
  4.541741E-01
  4.526972E-01
  4.511906E-01
  4.417056E-01
  4.428510E-01
  4.446940E-01
  4.487711E-01
  4.501472E-01
  4.523584E-01
  4.529860E-01
  4.534879E-01
  4.505294E-01
  4.500504E-01
  4.505088E-01
  4.521447E-01
  4.494715E-01
  4.477097E-01
  4.473928E-01
  4.513837E-01
  4.540411E-01
  4.572291E-01
  4.575335E-01
  4.567168E-01
  4.521934E-01
  4.500920E-01
  4.483099E-01
  4.472610E-01
  4.431812E-01
  4.423591E-01
  4.440549E-01
  4.486935E-01
  4.491055E-01
  4.486249E-01
  4.485776E-01
  4.529913E-01
  4.541700E-01
  4.528362E-01
  4.505092E-01
  4.537725E-01
  4.559476E-01
  4.553407E-01
  4.503655E-01
  4.484410E-01
  4.474002E-01
  4.480844E-01
  4.463729E-01
  4.462567E-01
  4.459802E-01
  4.484366E-01
  4.489258E-01
  4.492823E-01
  4.478053E-01
  4.493731E-01
  4.499459E-01
  4.501215E-01
  4.472146E-01
  4.469243E-01
  4.473962E-01
  4.500996E-01
  4.496759E-01
  4.485459E-01
  4.456451E-01
  4.460357E-01
  4.459519E-01
  4.463931E-01
  4.442183E-01
  4.434775E-01
  4.418084E-01
  4.419308E-01
  4.446166E-01
  4.506266E-01
  4.519099E-01
  4.522980E-01
  4.508704E-01
  4.519635E-01
  4.509323E-01
  4.516796E-01
  4.512144E-01
  4.526846E-01
  4.512036E-01
  4.506273E-01
  4.485956E-01
  4.493817E-01
  4.491106E-01
  4.519559E-01
  4.537361E-01
  4.550089E-01
  4.503817E-01
  4.471078E-01
  4.454505E-01
  4.480989E-01
  4.484190E-01
  4.500848E-01
  4.507331E-01
  4.529125E-01
  4.506975E-01
  4.489929E-01
  4.480757E-01
  4.523838E-01
  4.538951E-01
  4.532524E-01
  4.496837E-01
  4.508917E-01
  4.518061E-01
  4.521536E-01
  4.483354E-01
  4.473094E-01
  4.462878E-01
  4.476431E-01
  4.473639E-01
  4.490006E-01
  4.474601E-01
  4.459569E-01
  4.426118E-01
  4.433079E-01
  4.451933E-01
  4.506523E-01
  4.525836E-01
  4.521772E-01
  4.478259E-01
  4.481837E-01
  4.514091E-01
  4.573683E-01
  4.568053E-01
  4.524823E-01
  4.453378E-01
  4.436261E-01
  4.436438E-01
  4.464000E-01
  4.461706E-01
  4.456093E-01
  4.401468E-01
  4.415908E-01
  4.445510E-01
  4.481974E-01
  4.488622E-01
  4.496136E-01
  4.505719E-01
  4.520440E-01
  4.510091E-01
  4.507466E-01
  4.511131E-01
  4.521164E-01
  4.502312E-01
  4.483280E-01
  4.468940E-01
  4.472061E-01
  4.465331E-01
  4.475885E-01
  4.494955E-01
  4.513462E-01
  4.491945E-01
  4.465543E-01
  4.446142E-01
  4.450897E-01
  4.456466E-01
  4.483517E-01
  4.511954E-01
  4.534937E-01
  4.515749E-01
  4.479355E-01
  4.441971E-01
  4.441545E-01
  4.450088E-01
  4.466295E-01
  4.480320E-01
  4.514572E-01
  4.528880E-01
  4.514226E-01
  4.462376E-01
  4.419889E-01
  4.398311E-01
  4.426357E-01
  4.468580E-01
  4.498342E-01
  4.477957E-01
  4.445957E-01
  4.420459E-01
  4.435053E-01
  4.470448E-01
  4.520066E-01
  4.535053E-01
  4.519911E-01
  4.481234E-01
  4.470959E-01
  4.489494E-01
  4.536774E-01
  4.556777E-01
  4.541298E-01
  4.493560E-01
  4.468266E-01
  4.457487E-01
  4.456449E-01
  4.435598E-01
  4.418076E-01
  4.441447E-01
  4.433563E-01
  4.447041E-01
  4.477006E-01
  4.487913E-01
  4.489817E-01
  4.482732E-01
  4.481446E-01
  4.473243E-01
  4.476215E-01
  4.483619E-01
  4.500632E-01
  4.500287E-01
  4.486753E-01
  4.458312E-01
  4.444543E-01
  4.446006E-01
  4.480268E-01
  4.524409E-01
  4.553869E-01
  4.529470E-01
  4.483597E-01
  4.444933E-01
  4.439847E-01
  4.451882E-01
  4.491280E-01
  4.535241E-01
  4.563784E-01
  4.542016E-01
  4.499243E-01
  4.463563E-01
  4.464089E-01
  4.468594E-01
  4.464815E-01
  4.449117E-01
  4.457112E-01
  4.474705E-01
  4.488088E-01
  4.472370E-01
  4.447431E-01
  4.418300E-01
  4.419733E-01
  4.452004E-01
  4.501760E-01
  4.515153E-01
  4.495828E-01
  4.464449E-01
  4.467667E-01
  4.497424E-01
  4.534353E-01
  4.529837E-01
  4.494285E-01
  4.451746E-01
  4.449187E-01
  4.478996E-01
  4.525688E-01
  4.540658E-01
  4.524488E-01
  4.494121E-01
  4.495663E-01
  4.513252E-01
  4.526435E-01
  4.506372E-01
  4.475557E-01
  4.423818E-01
  4.452235E-01
  4.451122E-01
  4.473706E-01
  4.475501E-01
  4.505561E-01
  4.500083E-01
  4.496123E-01
  4.455702E-01
  4.461277E-01
  4.469929E-01
  4.501687E-01
  4.479000E-01
  4.464501E-01
  4.440452E-01
  4.469472E-01
  4.487364E-01
  4.530216E-01
  4.541128E-01
  4.561395E-01
  4.532597E-01
  4.511957E-01
  4.459955E-01
  4.436247E-01
  4.407564E-01
  4.441163E-01
  4.477581E-01
  4.531535E-01
  4.522840E-01
  4.505189E-01
  4.458405E-01
  4.458728E-01
  4.451029E-01
  4.468290E-01
  4.461309E-01
  4.488584E-01
  4.489157E-01
  4.498182E-01
  4.464502E-01
  4.447142E-01
  4.411881E-01
  4.428741E-01
  4.443491E-01
  4.478232E-01
  4.471706E-01
  4.489838E-01
  4.490871E-01
  4.520013E-01
  4.519440E-01
  4.527153E-01
  4.484227E-01
  4.458545E-01
  4.424312E-01
  4.433278E-01
  4.426269E-01
  4.456339E-01
  4.473937E-01
  4.514969E-01
  4.518546E-01
  4.538916E-01
  4.520836E-01
  4.502172E-01
  4.444213E-01
  4.431250E-01
  4.457058E-01
  4.478825E-01
  4.465890E-01
  4.495106E-01
  4.495398E-01
  4.515154E-01
  4.479464E-01
  4.465366E-01
  4.428403E-01
  4.446730E-01
  4.448960E-01
  4.484756E-01
  4.471401E-01
  4.471430E-01
  4.438804E-01
  4.462619E-01
  4.474270E-01
  4.520237E-01
  4.525179E-01
  4.552530E-01
  4.527830E-01
  4.516804E-01
  4.467359E-01
  4.459062E-01
  4.430229E-01
  4.449596E-01
  4.453155E-01
  4.495935E-01
  4.492622E-01
  4.505243E-01
  4.487459E-01
  4.519534E-01
  4.515679E-01
  4.514647E-01
  4.461418E-01
  4.457674E-01
  4.445773E-01
  4.472869E-01
  4.465788E-01
  4.493443E-01
  4.481286E-01
  4.488104E-01
  4.457584E-01
  4.468373E-01
  4.458417E-01
  4.489333E-01
  4.484182E-01
  4.502276E-01
  4.480480E-01
  4.483216E-01
  4.440276E-01
  4.432176E-01
  4.414903E-01
  4.451917E-01
  4.457295E-01
  4.486839E-01
  4.478446E-01
  4.503498E-01
  4.498267E-01
  4.524714E-01
  4.503936E-01
  4.496964E-01
  4.455240E-01
  4.465468E-01
  4.459714E-01
  4.482455E-01
  4.470313E-01
  4.471153E-01
  4.476786E-01
  4.499749E-01
  4.499289E-01
  4.489777E-01
  4.459682E-01
  4.452386E-01
  4.452321E-01
  4.465331E-01
  4.451765E-01
  4.444014E-01
  4.445582E-01
  4.480317E-01
  4.494784E-01
  4.492449E-01
  4.473162E-01
  4.488990E-01
  4.510088E-01
  4.526190E-01
  4.500239E-01
  4.470473E-01
  4.432523E-01
  4.413775E-01
  4.399137E-01
  4.422488E-01
  4.450011E-01
  4.472652E-01
  4.462897E-01
  4.469255E-01
  4.475163E-01
  4.484205E-01
  4.474624E-01
  4.483655E-01
  4.479946E-01
  4.472258E-01
  4.453407E-01
  4.467069E-01
  4.484929E-01
  4.504944E-01
  4.485697E-01
  4.457354E-01
  4.432512E-01
  4.453516E-01
  4.471427E-01
  4.476181E-01
  4.449596E-01
  4.432600E-01
  4.411941E-01
  4.422439E-01
  4.447872E-01
  4.487712E-01
  4.490865E-01
  4.484470E-01
  4.472853E-01
  4.488369E-01
  4.493177E-01
  4.490475E-01
  4.452945E-01
  4.419908E-01
  4.399064E-01
  4.427513E-01
  4.537206E-01
  4.500484E-01
  4.477549E-01
  4.456528E-01
  4.478023E-01
  4.476975E-01
  4.488212E-01
  4.475371E-01
  4.482052E-01
  4.458035E-01
  4.452980E-01
  4.438356E-01
  4.456009E-01
  4.453270E-01
  4.478544E-01
  4.491425E-01
  4.512474E-01
  4.484056E-01
  4.479942E-01
  4.489886E-01
  4.537071E-01
  4.532180E-01
  4.514551E-01
  4.474627E-01
  4.467257E-01
  4.432248E-01
  4.418497E-01
  4.412493E-01
  4.453288E-01
  4.458463E-01
  4.463339E-01
  4.456892E-01
  4.487945E-01
  4.482141E-01
  4.476709E-01
  4.455224E-01
  4.466084E-01
  4.450073E-01
  4.460317E-01
  4.473239E-01
  4.513434E-01
  4.503278E-01
  4.489517E-01
  4.461614E-01
  4.479150E-01
  4.480775E-01
  4.481055E-01
  4.436874E-01
  4.422158E-01
  4.410382E-01
  4.431486E-01
  4.436013E-01
  4.479987E-01
  4.517206E-01
  4.558445E-01
  4.534193E-01
  4.500165E-01
  4.446631E-01
  4.434276E-01
  4.412586E-01
  4.419049E-01
  4.423309E-01
  4.476331E-01
  4.512157E-01
  4.569743E-01
  4.526954E-01
  4.488902E-01
  4.442920E-01
  4.456213E-01
  4.459604E-01
  4.491880E-01
  4.490130E-01
  4.502417E-01
  4.474960E-01
  4.473330E-01
  4.446662E-01
  4.445880E-01
  4.431070E-01
  4.481042E-01
  4.527167E-01
  4.569043E-01
  4.526017E-01
  4.497383E-01
  4.483543E-01
  4.530877E-01
  4.527910E-01
  4.505314E-01
  4.443283E-01
  4.428694E-01
  4.398796E-01
  4.403525E-01
  4.409293E-01
  4.459718E-01
  4.448921E-01
  4.424712E-01
  4.391574E-01
  4.436505E-01
  4.472974E-01
  4.520434E-01
  4.518409E-01
  4.518603E-01
  4.468674E-01
  4.450312E-01
  4.432118E-01
  4.458642E-01
  4.453507E-01
  4.467195E-01
  4.458269E-01
  4.490664E-01
  4.493516E-01
  4.492225E-01
  4.436846E-01
  4.424175E-01
  4.420854E-01
  4.459232E-01
  4.466075E-01
  4.503758E-01
  4.516843E-01
  4.534174E-01
  4.487808E-01
  4.457421E-01
  4.417498E-01
  4.419780E-01
  4.392500E-01
  4.396103E-01
  4.403615E-01
  4.477326E-01
  4.530103E-01
  4.614708E-01
  4.557180E-01
  4.502619E-01
  4.471285E-01
  4.469660E-01
  4.455677E-01
  4.443732E-01
  4.440818E-01
  4.464101E-01
  4.473945E-01
  4.473172E-01
  4.455342E-01
  4.443016E-01
  4.429818E-01
  4.450451E-01
  4.491203E-01
  4.531289E-01
  4.524582E-01
  4.504644E-01
  4.492959E-01
  4.504906E-01
  4.494172E-01
  4.467560E-01
  4.437481E-01
  4.435723E-01
  4.432303E-01
  4.437891E-01
  4.454161E-01
  4.484332E-01
  4.474200E-01
  4.446415E-01
  4.442115E-01
  4.493372E-01
  4.535621E-01
  4.542248E-01
  4.510054E-01
  4.482310E-01
  4.455838E-01
  4.454223E-01
  4.461294E-01
  4.468600E-01
  4.448845E-01
  4.447711E-01
  4.479971E-01
  4.535629E-01
  4.541306E-01
  4.492940E-01
  4.421681E-01
  4.404018E-01
  4.433809E-01
  4.479920E-01
  4.490124E-01
  4.494658E-01
  4.503762E-01
  4.517017E-01
  4.489290E-01
  4.447306E-01
  4.413688E-01
  4.413207E-01
  4.412533E-01
  4.427834E-01
  4.469129E-01
  4.550893E-01
  4.609962E-01
  4.557670E-01
  4.537569E-01
  4.497677E-01
  4.470673E-01
  4.460633E-01
  4.455841E-01
  4.445742E-01
  4.441715E-01
  4.447774E-01
  4.462392E-01
  4.471152E-01
  4.461646E-01
  4.427917E-01
  4.400063E-01
  4.408526E-01
  4.450782E-01
  4.484069E-01
  4.483736E-01
  4.456956E-01
  4.437870E-01
  4.443743E-01
  4.465381E-01
  4.472177E-01
  4.460947E-01
  4.444160E-01
  4.433627E-01
  4.433597E-01
  4.458265E-01
  4.488214E-01
  4.486063E-01
  4.453176E-01
  4.447732E-01
  4.490190E-01
  4.541247E-01
  4.552261E-01
  4.525860E-01
  4.486397E-01
  4.459555E-01
  4.449404E-01
  4.449955E-01
  4.446357E-01
  4.443891E-01
  4.454752E-01
  4.487190E-01
  4.518452E-01
  4.518558E-01
  4.474975E-01
  4.422575E-01
  4.402197E-01
  4.425615E-01
  4.458867E-01
  4.476318E-01
  4.479346E-01
  4.481992E-01
  4.470976E-01
  4.444695E-01
  4.429509E-01
  4.452095E-01
  4.486029E-01
  4.494774E-01
  4.476638E-01
  4.471415E-01
  4.498183E-01
  4.540390E-01
  4.531258E-01
  4.497207E-01
  4.492121E-01
  4.470491E-01
  4.482341E-01
  4.455092E-01
  4.446154E-01
  4.414446E-01
  4.426686E-01
  4.419303E-01
  4.442261E-01
  4.436215E-01
  4.453508E-01
  4.433455E-01
  4.438319E-01
  4.417511E-01
  4.430819E-01
  4.418589E-01
  4.430751E-01
  4.409391E-01
  4.428121E-01
  4.444105E-01
  4.500523E-01
  4.511208E-01
  4.521531E-01
  4.485809E-01
  4.487550E-01
  4.484802E-01
  4.516904E-01
  4.498603E-01
  4.499395E-01
  4.497959E-01
  4.548103E-01
  4.543427E-01
  4.516234E-01
  4.443985E-01
  4.431875E-01
  4.429225E-01
  4.469489E-01
  4.474604E-01
  4.490287E-01
  4.462176E-01
  4.473737E-01
  4.484369E-01
  4.523241E-01
  4.492949E-01
  4.457289E-01
  4.400049E-01
  4.403927E-01
  4.405717E-01
  4.440608E-01
  4.437250E-01
  4.461523E-01
  4.468421E-01
  4.502136E-01
  4.487295E-01
  4.496446E-01
  4.498696E-01
  4.544773E-01
  4.545410E-01
  4.547667E-01
  4.515243E-01
  4.527567E-01
  4.520748E-01
  4.468525E-01
  4.453530E-01
  4.488238E-01
  4.450487E-01
  4.477130E-01
  4.452477E-01
  4.491353E-01
  4.448199E-01
  4.446801E-01
  4.392372E-01
  4.431482E-01
  4.427373E-01
  4.480674E-01
  4.465421E-01
  4.508564E-01
  4.471493E-01
  4.474400E-01
  4.411000E-01
  4.418998E-01
  4.378562E-01
  4.428166E-01
  4.450100E-01
  4.534434E-01
  4.514918E-01
  4.519558E-01
  4.460226E-01
  4.490504E-01
  4.484573E-01
  4.534974E-01
  4.487357E-01
  4.485039E-01
  4.448303E-01
  4.505109E-01
  4.488338E-01
  4.500042E-01
  4.441166E-01
  4.465329E-01
  4.441694E-01
  4.471893E-01
  4.431421E-01
  4.463117E-01
  4.448237E-01
  4.497495E-01
  4.472440E-01
  4.493350E-01
  4.441729E-01
  4.457283E-01
  4.423273E-01
  4.453726E-01