# vtk DataFile Version 2.0
title
ASCII
DATASET STRUCTURED_GRID
DIMENSIONS   64   64    1
POINTS   4096  float
  0.000000E+00  0.000000E+00  0.000000E+00
  0.000000E+00  3.906250E-01  0.000000E+00
  0.000000E+00  7.812500E-01  0.000000E+00
  0.000000E+00  1.171875E+00  0.000000E+00
  0.000000E+00  1.562500E+00  0.000000E+00
  0.000000E+00  1.953125E+00  0.000000E+00
  0.000000E+00  2.343750E+00  0.000000E+00
  0.000000E+00  2.734375E+00  0.000000E+00
  0.000000E+00  3.125000E+00  0.000000E+00
  0.000000E+00  3.515625E+00  0.000000E+00
  0.000000E+00  3.906250E+00  0.000000E+00
  0.000000E+00  4.296875E+00  0.000000E+00
  0.000000E+00  4.687500E+00  0.000000E+00
  0.000000E+00  5.078125E+00  0.000000E+00
  0.000000E+00  5.468750E+00  0.000000E+00
  0.000000E+00  5.859375E+00  0.000000E+00
  0.000000E+00  6.250000E+00  0.000000E+00
  0.000000E+00  6.640625E+00  0.000000E+00
  0.000000E+00  7.031250E+00  0.000000E+00
  0.000000E+00  7.421875E+00  0.000000E+00
  0.000000E+00  7.812500E+00  0.000000E+00
  0.000000E+00  8.203125E+00  0.000000E+00
  0.000000E+00  8.593750E+00  0.000000E+00
  0.000000E+00  8.984375E+00  0.000000E+00
  0.000000E+00  9.375000E+00  0.000000E+00
  0.000000E+00  9.765625E+00  0.000000E+00
  0.000000E+00  1.015625E+01  0.000000E+00
  0.000000E+00  1.054688E+01  0.000000E+00
  0.000000E+00  1.093750E+01  0.000000E+00
  0.000000E+00  1.132812E+01  0.000000E+00
  0.000000E+00  1.171875E+01  0.000000E+00
  0.000000E+00  1.210938E+01  0.000000E+00
  0.000000E+00  1.250000E+01  0.000000E+00
  0.000000E+00  1.289062E+01  0.000000E+00
  0.000000E+00  1.328125E+01  0.000000E+00
  0.000000E+00  1.367188E+01  0.000000E+00
  0.000000E+00  1.406250E+01  0.000000E+00
  0.000000E+00  1.445312E+01  0.000000E+00
  0.000000E+00  1.484375E+01  0.000000E+00
  0.000000E+00  1.523438E+01  0.000000E+00
  0.000000E+00  1.562500E+01  0.000000E+00
  0.000000E+00  1.601562E+01  0.000000E+00
  0.000000E+00  1.640625E+01  0.000000E+00
  0.000000E+00  1.679688E+01  0.000000E+00
  0.000000E+00  1.718750E+01  0.000000E+00
  0.000000E+00  1.757812E+01  0.000000E+00
  0.000000E+00  1.796875E+01  0.000000E+00
  0.000000E+00  1.835938E+01  0.000000E+00
  0.000000E+00  1.875000E+01  0.000000E+00
  0.000000E+00  1.914062E+01  0.000000E+00
  0.000000E+00  1.953125E+01  0.000000E+00
  0.000000E+00  1.992188E+01  0.000000E+00
  0.000000E+00  2.031250E+01  0.000000E+00
  0.000000E+00  2.070312E+01  0.000000E+00
  0.000000E+00  2.109375E+01  0.000000E+00
  0.000000E+00  2.148438E+01  0.000000E+00
  0.000000E+00  2.187500E+01  0.000000E+00
  0.000000E+00  2.226562E+01  0.000000E+00
  0.000000E+00  2.265625E+01  0.000000E+00
  0.000000E+00  2.304688E+01  0.000000E+00
  0.000000E+00  2.343750E+01  0.000000E+00
  0.000000E+00  2.382812E+01  0.000000E+00
  0.000000E+00  2.421875E+01  0.000000E+00
  0.000000E+00  2.460938E+01  0.000000E+00
  3.906250E-01  0.000000E+00  0.000000E+00
  3.906250E-01  3.906250E-01  0.000000E+00
  3.906250E-01  7.812500E-01  0.000000E+00
  3.906250E-01  1.171875E+00  0.000000E+00
  3.906250E-01  1.562500E+00  0.000000E+00
  3.906250E-01  1.953125E+00  0.000000E+00
  3.906250E-01  2.343750E+00  0.000000E+00
  3.906250E-01  2.734375E+00  0.000000E+00
  3.906250E-01  3.125000E+00  0.000000E+00
  3.906250E-01  3.515625E+00  0.000000E+00
  3.906250E-01  3.906250E+00  0.000000E+00
  3.906250E-01  4.296875E+00  0.000000E+00
  3.906250E-01  4.687500E+00  0.000000E+00
  3.906250E-01  5.078125E+00  0.000000E+00
  3.906250E-01  5.468750E+00  0.000000E+00
  3.906250E-01  5.859375E+00  0.000000E+00
  3.906250E-01  6.250000E+00  0.000000E+00
  3.906250E-01  6.640625E+00  0.000000E+00
  3.906250E-01  7.031250E+00  0.000000E+00
  3.906250E-01  7.421875E+00  0.000000E+00
  3.906250E-01  7.812500E+00  0.000000E+00
  3.906250E-01  8.203125E+00  0.000000E+00
  3.906250E-01  8.593750E+00  0.000000E+00
  3.906250E-01  8.984375E+00  0.000000E+00
  3.906250E-01  9.375000E+00  0.000000E+00
  3.906250E-01  9.765625E+00  0.000000E+00
  3.906250E-01  1.015625E+01  0.000000E+00
  3.906250E-01  1.054688E+01  0.000000E+00
  3.906250E-01  1.093750E+01  0.000000E+00
  3.906250E-01  1.132812E+01  0.000000E+00
  3.906250E-01  1.171875E+01  0.000000E+00
  3.906250E-01  1.210938E+01  0.000000E+00
  3.906250E-01  1.250000E+01  0.000000E+00
  3.906250E-01  1.289062E+01  0.000000E+00
  3.906250E-01  1.328125E+01  0.000000E+00
  3.906250E-01  1.367188E+01  0.000000E+00
  3.906250E-01  1.406250E+01  0.000000E+00
  3.906250E-01  1.445312E+01  0.000000E+00
  3.906250E-01  1.484375E+01  0.000000E+00
  3.906250E-01  1.523438E+01  0.000000E+00
  3.906250E-01  1.562500E+01  0.000000E+00
  3.906250E-01  1.601562E+01  0.000000E+00
  3.906250E-01  1.640625E+01  0.000000E+00
  3.906250E-01  1.679688E+01  0.000000E+00
  3.906250E-01  1.718750E+01  0.000000E+00
  3.906250E-01  1.757812E+01  0.000000E+00
  3.906250E-01  1.796875E+01  0.000000E+00
  3.906250E-01  1.835938E+01  0.000000E+00
  3.906250E-01  1.875000E+01  0.000000E+00
  3.906250E-01  1.914062E+01  0.000000E+00
  3.906250E-01  1.953125E+01  0.000000E+00
  3.906250E-01  1.992188E+01  0.000000E+00
  3.906250E-01  2.031250E+01  0.000000E+00
  3.906250E-01  2.070312E+01  0.000000E+00
  3.906250E-01  2.109375E+01  0.000000E+00
  3.906250E-01  2.148438E+01  0.000000E+00
  3.906250E-01  2.187500E+01  0.000000E+00
  3.906250E-01  2.226562E+01  0.000000E+00
  3.906250E-01  2.265625E+01  0.000000E+00
  3.906250E-01  2.304688E+01  0.000000E+00
  3.906250E-01  2.343750E+01  0.000000E+00
  3.906250E-01  2.382812E+01  0.000000E+00
  3.906250E-01  2.421875E+01  0.000000E+00
  3.906250E-01  2.460938E+01  0.000000E+00
  7.812500E-01  0.000000E+00  0.000000E+00
  7.812500E-01  3.906250E-01  0.000000E+00
  7.812500E-01  7.812500E-01  0.000000E+00
  7.812500E-01  1.171875E+00  0.000000E+00
  7.812500E-01  1.562500E+00  0.000000E+00
  7.812500E-01  1.953125E+00  0.000000E+00
  7.812500E-01  2.343750E+00  0.000000E+00
  7.812500E-01  2.734375E+00  0.000000E+00
  7.812500E-01  3.125000E+00  0.000000E+00
  7.812500E-01  3.515625E+00  0.000000E+00
  7.812500E-01  3.906250E+00  0.000000E+00
  7.812500E-01  4.296875E+00  0.000000E+00
  7.812500E-01  4.687500E+00  0.000000E+00
  7.812500E-01  5.078125E+00  0.000000E+00
  7.812500E-01  5.468750E+00  0.000000E+00
  7.812500E-01  5.859375E+00  0.000000E+00
  7.812500E-01  6.250000E+00  0.000000E+00
  7.812500E-01  6.640625E+00  0.000000E+00
  7.812500E-01  7.031250E+00  0.000000E+00
  7.812500E-01  7.421875E+00  0.000000E+00
  7.812500E-01  7.812500E+00  0.000000E+00
  7.812500E-01  8.203125E+00  0.000000E+00
  7.812500E-01  8.593750E+00  0.000000E+00
  7.812500E-01  8.984375E+00  0.000000E+00
  7.812500E-01  9.375000E+00  0.000000E+00
  7.812500E-01  9.765625E+00  0.000000E+00
  7.812500E-01  1.015625E+01  0.000000E+00
  7.812500E-01  1.054688E+01  0.000000E+00
  7.812500E-01  1.093750E+01  0.000000E+00
  7.812500E-01  1.132812E+01  0.000000E+00
  7.812500E-01  1.171875E+01  0.000000E+00
  7.812500E-01  1.210938E+01  0.000000E+00
  7.812500E-01  1.250000E+01  0.000000E+00
  7.812500E-01  1.289062E+01  0.000000E+00
  7.812500E-01  1.328125E+01  0.000000E+00
  7.812500E-01  1.367188E+01  0.000000E+00
  7.812500E-01  1.406250E+01  0.000000E+00
  7.812500E-01  1.445312E+01  0.000000E+00
  7.812500E-01  1.484375E+01  0.000000E+00
  7.812500E-01  1.523438E+01  0.000000E+00
  7.812500E-01  1.562500E+01  0.000000E+00
  7.812500E-01  1.601562E+01  0.000000E+00
  7.812500E-01  1.640625E+01  0.000000E+00
  7.812500E-01  1.679688E+01  0.000000E+00
  7.812500E-01  1.718750E+01  0.000000E+00
  7.812500E-01  1.757812E+01  0.000000E+00
  7.812500E-01  1.796875E+01  0.000000E+00
  7.812500E-01  1.835938E+01  0.000000E+00
  7.812500E-01  1.875000E+01  0.000000E+00
  7.812500E-01  1.914062E+01  0.000000E+00
  7.812500E-01  1.953125E+01  0.000000E+00
  7.812500E-01  1.992188E+01  0.000000E+00
  7.812500E-01  2.031250E+01  0.000000E+00
  7.812500E-01  2.070312E+01  0.000000E+00
  7.812500E-01  2.109375E+01  0.000000E+00
  7.812500E-01  2.148438E+01  0.000000E+00
  7.812500E-01  2.187500E+01  0.000000E+00
  7.812500E-01  2.226562E+01  0.000000E+00
  7.812500E-01  2.265625E+01  0.000000E+00
  7.812500E-01  2.304688E+01  0.000000E+00
  7.812500E-01  2.343750E+01  0.000000E+00
  7.812500E-01  2.382812E+01  0.000000E+00
  7.812500E-01  2.421875E+01  0.000000E+00
  7.812500E-01  2.460938E+01  0.000000E+00
  1.171875E+00  0.000000E+00  0.000000E+00
  1.171875E+00  3.906250E-01  0.000000E+00
  1.171875E+00  7.812500E-01  0.000000E+00
  1.171875E+00  1.171875E+00  0.000000E+00
  1.171875E+00  1.562500E+00  0.000000E+00
  1.171875E+00  1.953125E+00  0.000000E+00
  1.171875E+00  2.343750E+00  0.000000E+00
  1.171875E+00  2.734375E+00  0.000000E+00
  1.171875E+00  3.125000E+00  0.000000E+00
  1.171875E+00  3.515625E+00  0.000000E+00
  1.171875E+00  3.906250E+00  0.000000E+00
  1.171875E+00  4.296875E+00  0.000000E+00
  1.171875E+00  4.687500E+00  0.000000E+00
  1.171875E+00  5.078125E+00  0.000000E+00
  1.171875E+00  5.468750E+00  0.000000E+00
  1.171875E+00  5.859375E+00  0.000000E+00
  1.171875E+00  6.250000E+00  0.000000E+00
  1.171875E+00  6.640625E+00  0.000000E+00
  1.171875E+00  7.031250E+00  0.000000E+00
  1.171875E+00  7.421875E+00  0.000000E+00
  1.171875E+00  7.812500E+00  0.000000E+00
  1.171875E+00  8.203125E+00  0.000000E+00
  1.171875E+00  8.593750E+00  0.000000E+00
  1.171875E+00  8.984375E+00  0.000000E+00
  1.171875E+00  9.375000E+00  0.000000E+00
  1.171875E+00  9.765625E+00  0.000000E+00
  1.171875E+00  1.015625E+01  0.000000E+00
  1.171875E+00  1.054688E+01  0.000000E+00
  1.171875E+00  1.093750E+01  0.000000E+00
  1.171875E+00  1.132812E+01  0.000000E+00
  1.171875E+00  1.171875E+01  0.000000E+00
  1.171875E+00  1.210938E+01  0.000000E+00
  1.171875E+00  1.250000E+01  0.000000E+00
  1.171875E+00  1.289062E+01  0.000000E+00
  1.171875E+00  1.328125E+01  0.000000E+00
  1.171875E+00  1.367188E+01  0.000000E+00
  1.171875E+00  1.406250E+01  0.000000E+00
  1.171875E+00  1.445312E+01  0.000000E+00
[...]
POINT_DATA   4096
SCALARS CON  float  1
LOOKUP_TABLE default
  3.805174E-01
  3.802553E-01
  3.849742E-01
  3.825256E-01
  3.835182E-01
  3.785568E-01
  3.801821E-01
  3.782803E-01
  3.825159E-01
  3.805571E-01
  3.824152E-01
  3.779020E-01
  3.789283E-01
  3.756485E-01
  3.789685E-01
  3.779248E-01
  3.825654E-01
  3.812678E-01
  3.840417E-01
  3.799782E-01
  3.804978E-01
  3.757190E-01
  3.767708E-01
  3.728560E-01
  3.744597E-01
  3.712500E-01
  3.745142E-01
  3.739450E-01
  3.794815E-01
  3.789209E-01
  3.818296E-01
  3.777525E-01
  3.790258E-01
  3.763291E-01
  3.803018E-01
  3.788661E-01
  3.814096E-01
  3.770975E-01
  3.776567E-01
  3.734213E-01
  3.753150E-01
  3.722878E-01
  3.745469E-01
  3.713980E-01
  3.738478E-01
  3.719368E-01
  3.768727E-01
  3.779475E-01
  3.845989E-01
  3.839526E-01
  3.853323E-01
  3.785415E-01
  3.769681E-01
  3.727536E-01
  3.777784E-01
  3.803883E-01
  3.885148E-01
  3.885059E-01
  3.902518E-01
  3.840802E-01
  3.829140E-01
  3.774197E-01
  3.787749E-01
  3.762784E-01
  3.815693E-01
  3.824789E-01
  3.875618E-01
  3.864081E-01
  3.861981E-01
  3.799551E-01
  3.785358E-01
  3.755050E-01
  3.787443E-01
  3.785635E-01
  3.818117E-01
  3.799227E-01
  3.813647E-01
  3.783004E-01
  3.793566E-01
  3.770511E-01
  3.800784E-01
  3.799179E-01
  3.834623E-01
  3.812174E-01
  3.813267E-01
  3.767558E-01
  3.770349E-01
  3.744804E-01
  3.767265E-01
  3.749595E-01
  3.771971E-01
  3.757513E-01
  3.790834E-01
  3.786676E-01
  3.818143E-01
  3.797245E-01
  3.807774E-01
  3.774470E-01
  3.784212E-01
  3.756527E-01
  3.772663E-01
  3.751155E-01
  3.772621E-01
  3.751300E-01
  3.763524E-01
  3.727469E-01
  3.730313E-01
  3.698703E-01
  3.718118E-01
  3.709735E-01
  3.756100E-01
  3.775065E-01
  3.837137E-01
  3.839645E-01
  3.849924E-01
  3.792933E-01
  3.779824E-01
  3.757907E-01
  3.816125E-01
  3.853682E-01
  3.918640E-01
  3.903296E-01
  3.893295E-01
  3.829021E-01
  3.815857E-01
  3.778707E-01
  3.794609E-01
  3.778699E-01
  3.756755E-01
  3.809127E-01
  3.867245E-01
  3.877966E-01
  3.860129E-01
  3.807005E-01
  3.775209E-01
  3.756762E-01
  3.775195E-01
  3.789843E-01
  3.812750E-01
  3.811721E-01
  3.813910E-01
  3.797587E-01
  3.794688E-01
  3.785123E-01
  3.797773E-01
  3.803297E-01
  3.819402E-01
  3.812329E-01
  3.807345E-01
  3.783950E-01
  3.774858E-01
  3.757058E-01
  3.755815E-01
  3.744121E-01
  3.748515E-01
  3.744371E-01
  3.756410E-01
  3.754285E-01
  3.760029E-01
  3.749047E-01
  3.754229E-01
  3.755458E-01
  3.776546E-01
  3.781842E-01
  3.788690E-01
  3.771042E-01
  3.761893E-01
  3.740881E-01
  3.733662E-01
  3.711939E-01
  3.702863E-01
  3.686688E-01
  3.695848E-01
  3.708276E-01
  3.748703E-01
  3.785060E-01
  3.830399E-01
  3.842125E-01
  3.837239E-01
  3.797696E-01
  3.773221E-01
  3.761558E-01
  3.797426E-01
  3.842588E-01
  3.895303E-01
  3.902341E-01
  3.882049E-01
  3.821285E-01
  3.769007E-01
  3.717851E-01
  3.704756E-01
  3.709346E-01
  3.761882E-01
  3.822713E-01
  3.859746E-01
  3.884156E-01
  3.843358E-01
  3.795093E-01
  3.733148E-01
  3.721248E-01
  3.723239E-01
  3.765014E-01
  3.789797E-01
  3.823821E-01
  3.820506E-01
  3.819782E-01
  3.789757E-01
  3.784038E-01
  3.774799E-01
  3.801918E-01
  3.813285E-01
  3.832936E-01
  3.814890E-01
  3.806304E-01
  3.779926E-01
  3.782323E-01
  3.771237E-01
  3.778730E-01
  3.760968E-01
  3.760451E-01
  3.745300E-01
  3.759845E-01
  3.762033E-01
  3.782587E-01
  3.774130E-01
  3.775167E-01
  3.751972E-01
  3.752342E-01
  3.742589E-01
  3.761987E-01
  3.764200E-01
  3.778113E-01
  3.757344E-01
  3.745456E-01
  3.716240E-01
  3.721090E-01
  3.722842E-01
  3.753694E-01
  3.766545E-01
  3.797714E-01
  3.804812E-01
  3.820708E-01
  3.799601E-01
  3.786561E-01
  3.760104E-01
  3.777802E-01
  3.802947E-01
  3.857731E-01
  3.875428E-01
  3.878831E-01
  3.832212E-01
  3.795276E-01
  3.746597E-01
  3.733245E-01
  3.716678E-01
  3.738070E-01
  3.725518E-01
  3.805068E-01
  3.826820E-01
  3.861628E-01
  3.807413E-01
  3.780849E-01
  3.715173E-01
  3.723744E-01
  3.712777E-01
  3.765509E-01
  3.772245E-01
  3.816668E-01
  3.797549E-01
  3.813557E-01
  3.777439E-01
  3.795206E-01
  3.776563E-01
  3.814636E-01
  3.805445E-01
  3.836733E-01
  3.808397E-01
  3.818461E-01
  3.775206E-01
  3.779249E-01
  3.738634E-01
  3.750564E-01
  3.720031E-01
  3.741491E-01
  3.719678E-01
  3.749141E-01
  3.733204E-01
  3.764343E-01
  3.745568E-01
  3.773432E-01
  3.754379E-01
  3.783814E-01
  3.764093E-01
  3.788747E-01
  3.761248E-01
  3.776270E-01
  3.738194E-01
  3.746694E-01
  3.715210E-01
  3.746077E-01
  3.743587E-01
  3.793002E-01
  3.787182E-01
  3.817385E-01
  3.789867E-01
  3.803882E-01
  3.764773E-01
  3.770944E-01
  3.734356E-01
  3.759285E-01
  3.754478E-01
  3.808881E-01
  3.812135E-01
  3.845652E-01
  3.806764E-01
  3.796537E-01
  3.730560E-01
  3.717798E-01
  3.676205E-01
  3.709837E-01
  3.761944E-01
  3.816692E-01
  3.812255E-01
  3.843594E-01
  3.785894E-01
  3.766559E-01
  3.695084E-01
  3.704288E-01
  3.685777E-01
  3.744345E-01
  3.751953E-01
  3.808226E-01
  3.789155E-01
  3.809805E-01
  3.765302E-01
  3.785461E-01
  3.766224E-01
  3.819872E-01
  3.817683E-01
  3.859072E-01
  3.821539E-01
  3.826337E-01
  3.769837E-01
  3.776594E-01
  3.735231E-01
  3.757243E-01
  3.725036E-01
  3.752349E-01
  3.730031E-01
  3.776278E-01
  3.773620E-01
  3.823679E-01
  3.797809E-01
  3.808733E-01
  3.753687E-01
  3.765088E-01
  3.739049E-01
  3.786038E-01
  3.777013E-01
  3.811414E-01
  3.770199E-01
  3.779533E-01
  3.743786E-01
  3.787573E-01
  3.789008E-01
  3.841969E-01
  3.815015E-01
  3.825128E-01
  3.770906E-01
  3.778690E-01
  3.735811E-01
  3.754776E-01
  3.723732E-01
  3.760972E-01
  3.751762E-01
  3.800830E-01
  3.782138E-01
  3.806653E-01
  3.765828E-01
  3.783965E-01
  3.750253E-01
  3.776339E-01
  3.745671E-01
  3.776406E-01
  3.741082E-01
  3.788820E-01
  3.784600E-01
  3.814260E-01
  3.773425E-01
  3.771341E-01
  3.722854E-01
  3.737680E-01
  3.719268E-01
  3.761662E-01
  3.756766E-01
  3.794702E-01
  3.771031E-01
  3.789459E-01
  3.760168E-01
  3.792005E-01
  3.786775E-01
  3.836949E-01
  3.831070E-01
  3.861079E-01
  3.823450E-01
  3.821918E-01
  3.762212E-01
  3.752755E-01
  3.702988E-01
  3.717615E-01
  3.697662E-01
  3.736932E-01
  3.731374E-01
  3.777067E-01
  3.771868E-01
  3.810969E-01
  3.790393E-01
  3.812223E-01
  3.783367E-01
  3.809645E-01
  3.790235E-01
  3.818751E-01
  3.788907E-01
  3.799387E-01
  3.755198E-01
  3.766382E-01
  3.743759E-01
  3.789740E-01
  3.795758E-01
  3.843860E-01
  3.819531E-01
  3.824632E-01
  3.772250E-01
  3.775412E-01
  3.737928E-01
  3.755453E-01
  3.725345E-01
  3.747568E-01
  3.725508E-01
  3.758639E-01
  3.744936E-01
  3.780346E-01
  3.762378E-01
  3.788527E-01
  3.757512E-01
  3.770190E-01
  3.732920E-01
  3.754316E-01
  3.768290E-01
  3.782991E-01
  3.777112E-01
  3.801604E-01
  3.784010E-01
  3.784334E-01
  3.749458E-01
  3.751973E-01
  3.737608E-01
  3.766454E-01
  3.769781E-01
  3.798589E-01
  3.784314E-01
  3.790067E-01
  3.764883E-01
  3.783221E-01
  3.789812E-01
  3.838922E-01
  3.851500E-01
  3.873361E-01
  3.837774E-01
  3.815960E-01
  3.761299E-01
  3.748191E-01
  3.721179E-01
  3.739178E-01
  3.734941E-01
  3.764035E-01
  3.765441E-01
  3.803546E-01
  3.815446E-01
  3.852280E-01
  3.839593E-01
  3.837568E-01
  3.797258E-01
  3.797964E-01
  3.785928E-01
  3.815326E-01
  3.809084E-01
  3.818166E-01
  3.783318E-01
  3.780269E-01
  3.762871E-01
  3.796147E-01
  3.806671E-01
  3.836501E-01
  3.813233E-01
  3.805869E-01
  3.768587E-01
  3.772315E-01
  3.753497E-01
  3.767295E-01
  3.751516E-01
  3.770580E-01
  3.763053E-01
  3.783513E-01
  3.764357E-01
  3.769596E-01
  3.748701E-01
  3.771361E-01
  3.773332E-01
  3.803448E-01
  3.789586E-01
  3.794480E-01
  3.725758E-01
  3.742167E-01
  3.753836E-01
  3.782324E-01
  3.791062E-01
  3.805965E-01
  3.798729E-01
  3.802926E-01
  3.793957E-01
  3.803217E-01
  3.798786E-01
  3.804474E-01
  3.788113E-01
  3.783741E-01
  3.772081E-01
  3.790031E-01
  3.806960E-01
  3.841713E-01
  3.851400E-01
  3.856941E-01
  3.828408E-01
  3.802176E-01
  3.758633E-01
  3.737424E-01
  3.717784E-01
  3.731259E-01
  3.743185E-01
  3.771886E-01
  3.779960E-01
  3.795829E-01
  3.793964E-01
  3.806391E-01
  3.803839E-01
  3.816685E-01
  3.817698E-01
  3.835550E-01
  3.834159E-01
  3.834895E-01
  3.806372E-01
  3.785361E-01
  3.754246E-01
  3.751289E-01
  3.749239E-01
  3.771950E-01
  3.780697E-01
  3.796201E-01
  3.787098E-01
  3.788576E-01
  3.778818E-01
  3.788913E-01
  3.784578E-01
  3.789701E-01
  3.775522E-01
  3.776978E-01
  3.769086E-01
  3.779723E-01
  3.774989E-01
  3.781726E-01
  3.771959E-01
  3.776588E-01
  3.764959E-01
  3.763221E-01
  3.742162E-01
  3.736753E-01
  3.739601E-01
  3.738986E-01
  3.750353E-01
  3.779870E-01
  3.800446E-01
  3.815208E-01
  3.809866E-01
  3.805553E-01
  3.798016E-01
  3.805032E-01
  3.809638E-01
  3.816840E-01
  3.806326E-01
  3.793130E-01
  3.774250E-01
  3.776041E-01
  3.790765E-01
  3.824358E-01
  3.845650E-01
  3.851968E-01
  3.826226E-01
  3.793460E-01
  3.758142E-01
  3.747695E-01
  3.752460E-01
  3.778599E-01
  3.799130E-01
  3.815897E-01
  3.813658E-01
  3.813882E-01
  3.811220E-01
  3.818955E-01
  3.816746E-01
  3.814276E-01
  3.802562E-01
  3.802700E-01
  3.802494E-01
  3.808404E-01
  3.798642E-01
  3.785860E-01
  3.764335E-01
  3.757682E-01
  3.757225E-01
  3.771794E-01
  3.777754E-01
  3.781563E-01
  3.772699E-01
  3.774511E-01
  3.779690E-01
  3.796849E-01
  3.801533E-01
  3.802551E-01
  3.793731E-01
  3.799673E-01
  3.808568E-01
  3.822915E-01
  3.816523E-01
  3.802297E-01
  3.779318E-01
  3.774301E-01
  3.774924E-01
  3.783431E-01
  3.774403E-01
  3.760453E-01
  3.702224E-01
  3.717179E-01
  3.734742E-01
  3.770251E-01
  3.793318E-01
  3.818379E-01
  3.820083E-01
  3.823419E-01
  3.813095E-01
  3.816457E-01
  3.810616E-01
  3.811897E-01
  3.794225E-01
  3.783318E-01
  3.766987E-01
  3.775482E-01
  3.787038E-01
  3.815085E-01
  3.825417E-01
  3.831069E-01
  3.808432E-01
  3.786211E-01
  3.753606E-01
  3.744167E-01
  3.743455E-01
  3.771876E-01
  3.795801E-01
  3.820775E-01
  3.814468E-01
  3.802124E-01
  3.774310E-01
  3.765485E-01
  3.759602E-01
  3.777945E-01
  3.793090E-01
  3.817261E-01
  3.816862E-01
  3.807601E-01
  3.772411E-01
  3.747783E-01
  3.725798E-01
  3.732555E-01
  3.739545E-01
  3.757529E-01
  3.757839E-01
  3.764178E-01
  3.762085E-01
  3.779299E-01
  3.791929E-01
  3.812503E-01
  3.809349E-01
  3.803726E-01
  3.783250E-01
  3.782471E-01
  3.784823E-01
  3.806889E-01
  3.815611E-01
  3.825075E-01
  3.812119E-01
  3.802049E-01
  3.775665E-01
  3.756817E-01
  3.726841E-01
  3.713729E-01
  3.732889E-01
  3.738232E-01
  3.742792E-01
  3.776393E-01
  3.789847E-01
  3.808994E-01
  3.795283E-01
  3.792952E-01
  3.776015E-01
  3.787023E-01
  3.786569E-01
  3.801985E-01
  3.788306E-01
  3.782067E-01
  3.756048E-01
  3.759601E-01
  3.763608E-01
  3.800020E-01
  3.817284E-01
  3.835839E-01
  3.812438E-01
  3.792141E-01
  3.755465E-01
  3.754450E-01
  3.758162E-01
  3.795935E-01
  3.815742E-01
  3.839296E-01
  3.825071E-01
  3.817663E-01
  3.792170E-01
  3.791186E-01
  3.776098E-01
  3.779688E-01
  3.765606E-01
  3.773070E-01
  3.765435E-01
  3.774816E-01
  3.760456E-01
  3.760030E-01
  3.743274E-01
  3.752484E-01
  3.751727E-01
  3.771689E-01
  3.769068E-01
  3.778958E-01
  3.770317E-01
  3.786068E-01
  3.788842E-01
  3.806016E-01
  3.791991E-01
  3.785583E-01
  3.763745E-01
  3.776373E-01
  3.787940E-01
  3.822151E-01
  3.826820E-01
  3.833459E-01
  3.812444E-01
  3.810820E-01
  3.794780E-01
  3.795781E-01
  3.771368E-01
  3.759483E-01
  3.713948E-01
  3.734916E-01
  3.740282E-01
  3.772385E-01
  3.779586E-01
  3.802937E-01
  3.792035E-01
  3.795928E-01
  3.774629E-01
  3.781057E-01
  3.768653E-01
  3.779054E-01
  3.761359E-01
  3.764422E-01
  3.748633E-01
  3.766360E-01
  3.770936E-01
  3.803556E-01
  3.809690E-01
  3.829101E-01
  3.810146E-01
  3.800556E-01
  3.760541E-01
  3.748980E-01
  3.730758E-01
  3.756069E-01
  3.770580E-01
  3.805100E-01
  3.799098E-01
  3.797524E-01
  3.763283E-01
  3.756808E-01
  3.740207E-01
  3.760687E-01
  3.765410E-01
  3.791061E-01
  3.781751E-01
  3.781482E-01
  3.749480E-01
  3.743647E-01
  3.726081E-01
  3.743860E-01
  3.744074E-01
  3.765917E-01
  3.760195E-01
  3.776436E-01
  3.771787E-01
  3.792931E-01
  3.787916E-01
  3.797148E-01
  3.771871E-01
  3.764558E-01
  3.738696E-01
  3.749188E-01
  3.751351E-01
  3.786724E-01
  3.799876E-01
  3.829187E-01
  3.821658E-01
  3.822294E-01
  3.786621E-01
  3.768752E-01
  3.731111E-01
  3.727513E-01
  3.761649E-01
  3.766842E-01
  3.761071E-01
  3.779727E-01
  3.780582E-01
  3.792149E-01
  3.775203E-01
  3.770349E-01
  3.749852E-01
  3.755608E-01
  3.750789E-01
  3.765414E-01
  3.757729E-01
  3.763224E-01
  3.750920E-01
  3.763813E-01
  3.769877E-01
  3.802895E-01
  3.818202E-01
  3.841052E-01
  3.827274E-01
  3.814028E-01
  3.774488E-01
  3.758291E-01
  3.739361E-01
  3.755168E-01
  3.762890E-01
  3.787931E-01
  3.786819E-01
  3.795851E-01
  3.783710E-01
  3.789977E-01
  3.777253E-01
  3.778884E-01
  3.759366E-01
  3.759528E-01
  3.748000E-01
  3.761160E-01
  3.758898E-01
  3.772595E-01
  3.764718E-01
  3.773639E-01
  3.766599E-01
  3.780457E-01
  3.776605E-01
  3.787986E-01
  3.777489E-01
  3.782394E-01
  3.767067E-01
  3.766716E-01
  3.745803E-01
  3.745481E-01
  3.737287E-01
  3.760477E-01
  3.773846E-01
  3.802412E-01
  3.801327E-01
  3.806546E-01
  3.788295E-01
  3.789822E-01
  3.777464E-01
  3.785438E-01
  3.774047E-01
  3.777569E-01
  3.760729E-01
  3.772378E-01
  3.769849E-01
  3.774145E-01
  3.774945E-01
  3.785659E-01
  3.785320E-01
  3.785440E-01
  3.772704E-01
  3.766505E-01
  3.754274E-01
  3.751370E-01
  3.744059E-01
  3.750915E-01
  3.759393E-01
  3.781981E-01
  3.797144E-01
  3.815137E-01
  3.820786E-01
  3.830539E-01
  3.826365E-01
  3.817122E-01
  3.784866E-01
  3.751733E-01
  3.717176E-01
  3.708821E-01
  3.713835E-01
  3.737346E-01
  3.749788E-01
  3.757638E-01
  3.748822E-01
  3.748708E-01
  3.750328E-01
  3.768336E-01
  3.780017E-01
  3.791664E-01
  3.784406E-01
  3.776646E-01
  3.760674E-01
  3.757701E-01
  3.754125E-01
  3.762291E-01
  3.763628E-01
  3.771502E-01
  3.770812E-01
  3.776252E-01
  3.771026E-01
  3.768538E-01
  3.754306E-01
  3.747149E-01
  3.737291E-01
  3.743258E-01
  3.749139E-01
  3.765010E-01
  3.770518E-01
  3.778634E-01
  3.775464E-01
  3.777082E-01
  3.766877E-01
  3.758613E-01
  3.740423E-01
  3.735122E-01
  3.733914E-01
  3.750294E-01
  3.826231E-01
  3.814378E-01
  3.798055E-01
  3.780406E-01
  3.775748E-01
  3.772050E-01
  3.772748E-01
  3.766328E-01
  3.763139E-01
  3.756150E-01
  3.754811E-01
  3.749909E-01
  3.751731E-01
  3.753969E-01
  3.767215E-01
  3.780891E-01
  3.800159E-01
  3.812621E-01
  3.825978E-01
  3.829967E-01
  3.830580E-01
  3.814952E-01
  3.792042E-01
  3.759016E-01
  3.735063E-01
  3.719262E-01
  3.722011E-01
  3.729270E-01
  3.743026E-01
  3.750963E-01
  3.763574E-01
  3.773764E-01
  3.787963E-01
  3.790767E-01
  3.787304E-01
  3.772148E-01
  3.763573E-01
  3.759646E-01
  3.768775E-01
  3.775165E-01
  3.781795E-01
  3.779690E-01
  3.782632E-01
  3.784466E-01
  3.790692E-01
  3.784984E-01
  3.772834E-01
  3.749559E-01
  3.733448E-01
  3.723507E-01
  3.731982E-01
  3.748570E-01
  3.776825E-01
  3.798356E-01
  3.811522E-01
  3.800820E-01
  3.777908E-01
  3.744337E-01
  3.721982E-01
  3.711409E-01
  3.725172E-01
  3.751237E-01
  3.788683E-01
  3.814391E-01
  3.830458E-01
  3.822598E-01
  3.805335E-01
  3.774549E-01
  3.766394E-01
  3.762080E-01
  3.775745E-01
  3.776877E-01
  3.781964E-01
  3.769012E-01
  3.761514E-01
  3.742470E-01
  3.740525E-01
  3.741420E-01
  3.767232E-01
  3.787668E-01
  3.811063E-01
  3.809425E-01
  3.809796E-01
  3.800813E-01
  3.807088E-01
  3.799160E-01
  3.788242E-01
  3.751935E-01
  3.723530E-01
  3.697278E-01
  3.701714E-01
  3.709563E-01
  3.728687E-01
  3.729059E-01
  3.735422E-01
  3.737435E-01
  3.763123E-01
  3.785661E-01
  3.812649E-01
  3.811127E-01
  3.802350E-01
  3.774419E-01
  3.760539E-01
  3.745934E-01
  3.752154E-01
  3.754484E-01
  3.770658E-01
  3.775628E-01
  3.786329E-01
  3.776572E-01
  3.766676E-01
  3.740170E-01
  3.728282E-01
  3.719245E-01
  3.738159E-01
  3.758935E-01
  3.790816E-01
  3.798983E-01
  3.798628E-01
  3.772573E-01
  3.753203E-01
  3.727581E-01
  3.719254E-01
  3.706826E-01
  3.714912E-01
  3.728170E-01
  3.768070E-01
  3.801272E-01
  3.877209E-01
  3.847512E-01
  3.820478E-01
  3.778087E-01
  3.765541E-01
  3.747547E-01
  3.754055E-01
  3.745649E-01
  3.755094E-01
  3.745867E-01
  3.751990E-01
  3.739319E-01
  3.746443E-01
  3.742447E-01
  3.762887E-01
  3.768232E-01
  3.787050E-01
  3.781035E-01
  3.788303E-01
  3.778952E-01
  3.789978E-01
  3.782326E-01
  3.785505E-01
  3.763013E-01
  3.755566E-01
  3.736104E-01
  3.743452E-01
  3.739899E-01
  3.755027E-01
  3.752410E-01
  3.771191E-01
  3.779778E-01
  3.808996E-01
  3.812280E-01
  3.816073E-01
  3.787488E-01
  3.774322E-01
  3.752774E-01
  3.759978E-01
  3.755095E-01
  3.767900E-01
  3.764180E-01
  3.782761E-01
  3.787252E-01
  3.803524E-01
  3.785789E-01
  3.768525E-01
  3.728249E-01
  3.716064E-01
  3.706990E-01
  3.735211E-01
  3.757393E-01
  3.796664E-01
  3.806513E-01
  3.815274E-01
  3.787976E-01
  3.767818E-01
  3.731236E-01
  3.723722E-01
  3.717109E-01
  3.748685E-01
  3.780136E-01
  3.835126E-01
  3.860660E-01
  3.838832E-01
  3.817602E-01
  3.807320E-01
  3.766025E-01
  3.761270E-01
  3.741564E-01
  3.756931E-01
  3.745828E-01
  3.759013E-01
  3.740945E-01
  3.747526E-01
  3.726925E-01
  3.738719E-01
  3.732560E-01
  3.761876E-01
  3.762944E-01
  3.779947E-01
  3.755451E-01
  3.754233E-01
  3.735413E-01
  3.758992E-01
  3.761698E-01
  3.783680E-01
  3.762546E-01
  3.760170E-01
  3.735638E-01
  3.751799E-01
  3.749174E-01
  3.771079E-01
  3.756668E-01
  3.767128E-01
  3.759166E-01
  3.792056E-01
  3.801980E-01
  3.829277E-01
  3.809471E-01
  3.800927E-01
  3.759432E-01
  3.750859E-01
  3.726451E-01
  3.742052E-01
  3.740926E-01
  3.773090E-01
  3.775983E-01
  3.795840E-01
  3.772102E-01
  3.762730E-01
  3.723100E-01
  3.720305E-01
  3.707581E-01
  3.738734E-01
  3.750595E-01
  3.785382E-01
  3.778904E-01
  3.786540E-01
  3.762396E-01
  3.771929E-01
  3.762706E-01
  3.783372E-01
  3.771918E-01
  3.784665E-01
  3.775335E-01
  3.804950E-01
  3.812526E-01
  3.839415E-01
  3.803994E-01
  3.805664E-01
  3.766122E-01
  3.771599E-01
  3.737901E-01
  3.747195E-01
  3.716976E-01
  3.732218E-01
  3.711252E-01
  3.736740E-01
  3.724371E-01
  3.755298E-01
  3.744018E-01
  3.770514E-01
  3.748212E-01
  3.759930E-01
  3.726265E-01
  3.738057E-01
  3.719133E-01
  3.753566E-01
  3.752499E-01
  3.790100E-01
  3.777338E-01
  3.799901E-01
  3.780099E-01
  3.804701E-01
  3.787622E-01
  3.809247E-01
  3.787581E-01
  3.812607E-01
  3.802960E-01
  3.835090E-01
  3.812576E-01
  3.814113E-01
  3.763880E-01
  3.760958E-01
  3.731329E-01
  3.755981E-01
  3.743621E-01
  3.772669E-01
  3.761769E-01
  3.796951E-01
  3.790494E-01
  3.815434E-01
  3.779691E-01
  3.770875E-01
  3.719523E-01
  3.722970E-01
  3.703671E-01
  3.739965E-01
  3.740455E-01
  3.781063E-01
  3.774864E-01
  3.805350E-01
  3.790988E-01
  3.818134E-01
  3.803844E-01
  3.830578E-01
  3.812543E-01
  3.835016E-01
  3.816773E-01
  3.842387E-01
  3.823717E-01
  3.776288E-01
  3.763034E-01
  3.788513E-01
  3.762203E-01
  3.778144E-01
  3.749873E-01
  3.766767E-01
  3.737609E-01
  3.751910E-01
  3.722825E-01
  3.742606E-01
  3.723925E-01
  3.756024E-01
  3.747278E-01
  3.781587E-01
  3.761490E-01
  3.772097E-01
  3.728093E-01
  3.732070E-01
  3.707997E-01
  3.747475E-01
  3.750787E-01
  3.791801E-01
  3.773198E-01
  3.790941E-01
  3.767117E-01
  3.796841E-01
  3.784120E-01
  3.809012E-01
  3.779084E-01
  3.792405E-01
  3.768723E-01
  3.798961E-01
  3.784891E-01
  3.807442E-01
  3.774194E-01
  3.779735E-01
  3.741021E-01
  3.752585E-01
  3.728385E-01
  3.759476E-01
  3.755279E-01
  3.799288E-01
  3.791969E-01
  3.815323E-01
  3.778178E-01
  3.777958E-01
  3.735304E-01
  3.747209E-01