# vtk DataFile Version 2.0
title
ASCII
DATASET STRUCTURED_GRID
DIMENSIONS   64   64    1
POINTS   4096  float
  0.000000E+00  0.000000E+00  0.000000E+00
  0.000000E+00  3.906250E-01  0.000000E+00
  0.000000E+00  7.812500E-01  0.000000E+00
  0.000000E+00  1.171875E+00  0.000000E+00
  0.000000E+00  1.562500E+00  0.000000E+00
  0.000000E+00  1.953125E+00  0.000000E+00
  0.000000E+00  2.343750E+00  0.000000E+00
  0.000000E+00  2.734375E+00  0.000000E+00
  0.000000E+00  3.125000E+00  0.000000E+00
  0.000000E+00  3.515625E+00  0.000000E+00
  0.000000E+00  3.906250E+00  0.000000E+00
  0.000000E+00  4.296875E+00  0.000000E+00
  0.000000E+00  4.687500E+00  0.000000E+00
  0.000000E+00  5.078125E+00  0.000000E+00
  0.000000E+00  5.468750E+00  0.000000E+00
  0.000000E+00  5.859375E+00  0.000000E+00
  0.000000E+00  6.250000E+00  0.000000E+00
  0.000000E+00  6.640625E+00  0.000000E+00
  0.000000E+00  7.031250E+00  0.000000E+00
  0.000000E+00  7.421875E+00  0.000000E+00
  0.000000E+00  7.812500E+00  0.000000E+00
  0.000000E+00  8.203125E+00  0.000000E+00
  0.000000E+00  8.593750E+00  0.000000E+00
  0.000000E+00  8.984375E+00  0.000000E+00
  0.000000E+00  9.375000E+00  0.000000E+00
  0.000000E+00  9.765625E+00  0.000000E+00
  0.000000E+00  1.015625E+01  0.000000E+00
  0.000000E+00  1.054688E+01  0.000000E+00
  0.000000E+00  1.093750E+01  0.000000E+00
  0.000000E+00  1.132812E+01  0.000000E+00
  0.000000E+00  1.171875E+01  0.000000E+00
  0.000000E+00  1.210938E+01  0.000000E+00
  0.000000E+00  1.250000E+01  0.000000E+00
  0.000000E+00  1.289062E+01  0.000000E+00
  0.000000E+00  1.328125E+01  0.000000E+00
  0.000000E+00  1.367188E+01  0.000000E+00
  0.000000E+00  1.406250E+01  0.000000E+00
  0.000000E+00  1.445312E+01  0.000000E+00
  0.000000E+00  1.484375E+01  0.000000E+00
  0.000000E+00  1.523438E+01  0.000000E+00
  0.000000E+00  1.562500E+01  0.000000E+00
  0.000000E+00  1.601562E+01  0.000000E+00
  0.000000E+00  1.640625E+01  0.000000E+00
  0.000000E+00  1.679688E+01  0.000000E+00
  0.000000E+00  1.718750E+01  0.000000E+00
  0.000000E+00  1.757812E+01  0.000000E+00
  0.000000E+00  1.796875E+01  0.000000E+00
  0.000000E+00  1.835938E+01  0.000000E+00
  0.000000E+00  1.875000E+01  0.000000E+00
  0.000000E+00  1.914062E+01  0.000000E+00
  0.000000E+00  1.953125E+01  0.000000E+00
  0.000000E+00  1.992188E+01  0.000000E+00
  0.000000E+00  2.031250E+01  0.000000E+00
  0.000000E+00  2.070312E+01  0.000000E+00
  0.000000E+00  2.109375E+01  0.000000E+00
  0.000000E+00  2.148438E+01  0.000000E+00
  0.000000E+00  2.187500E+01  0.000000E+00
  0.000000E+00  2.226562E+01  0.000000E+00
  0.000000E+00  2.265625E+01  0.000000E+00
  0.000000E+00  2.304688E+01  0.000000E+00
  0.000000E+00  2.343750E+01  0.000000E+00
  0.000000E+00  2.382812E+01  0.000000E+00
  0.000000E+00  2.421875E+01  0.000000E+00
  0.000000E+00  2.460938E+01  0.000000E+00
  3.906250E-01  0.000000E+00  0.000000E+00
  3.906250E-01  3.906250E-01  0.000000E+00
  3.906250E-01  7.812500E-01  0.000000E+00
  3.906250E-01  1.171875E+00  0.000000E+00
  3.906250E-01  1.562500E+00  0.000000E+00
  3.906250E-01  1.953125E+00  0.000000E+00
  3.906250E-01  2.343750E+00  0.000000E+00
  3.906250E-01  2.734375E+00  0.000000E+00
  3.906250E-01  3.125000E+00  0.000000E+00
  3.906250E-01  3.515625E+00  0.000000E+00
  3.906250E-01  3.906250E+00  0.000000E+00
  3.906250E-01  4.296875E+00  0.000000E+00
  3.906250E-01  4.687500E+00  0.000000E+00
  3.906250E-01  5.078125E+00  0.000000E+00
  3.906250E-01  5.468750E+00  0.000000E+00
  3.906250E-01  5.859375E+00  0.000000E+00
  3.906250E-01  6.250000E+00  0.000000E+00
  3.906250E-01  6.640625E+00  0.000000E+00
  3.906250E-01  7.031250E+00  0.000000E+00
  3.906250E-01  7.421875E+00  0.000000E+00
  3.906250E-01  7.812500E+00  0.000000E+00
  3.906250E-01  8.203125E+00  0.000000E+00
  3.906250E-01  8.593750E+00  0.000000E+00
  3.906250E-01  8.984375E+00  0.000000E+00
  3.906250E-01  9.375000E+00  0.000000E+00
  3.906250E-01  9.765625E+00  0.000000E+00
  3.906250E-01  1.015625E+01  0.000000E+00
  3.906250E-01  1.054688E+01  0.000000E+00
  3.906250E-01  1.093750E+01  0.000000E+00
  3.906250E-01  1.132812E+01  0.000000E+00
  3.906250E-01  1.171875E+01  0.000000E+00
  3.906250E-01  1.210938E+01  0.000000E+00
  3.906250E-01  1.250000E+01  0.000000E+00
  3.906250E-01  1.289062E+01  0.000000E+00
  3.906250E-01  1.328125E+01  0.000000E+00
  3.906250E-01  1.367188E+01  0.000000E+00
  3.906250E-01  1.406250E+01  0.000000E+00
  3.906250E-01  1.445312E+01  0.000000E+00
  3.906250E-01  1.484375E+01  0.000000E+00
  3.906250E-01  1.523438E+01  0.000000E+00
  3.906250E-01  1.562500E+01  0.000000E+00
  3.906250E-01  1.601562E+01  0.000000E+00
  3.906250E-01  1.640625E+01  0.000000E+00
  3.906250E-01  1.679688E+01  0.000000E+00
  3.906250E-01  1.718750E+01  0.000000E+00
  3.906250E-01  1.757812E+01  0.000000E+00
  3.906250E-01  1.796875E+01  0.000000E+00
  3.906250E-01  1.835938E+01  0.000000E+00
  3.906250E-01  1.875000E+01  0.000000E+00
  3.906250E-01  1.914062E+01  0.000000E+00
  3.906250E-01  1.953125E+01  0.000000E+00
  3.906250E-01  1.992188E+01  0.000000E+00
  3.906250E-01  2.031250E+01  0.000000E+00
  3.906250E-01  2.070312E+01  0.000000E+00
  3.906250E-01  2.109375E+01  0.000000E+00
  3.906250E-01  2.148438E+01  0.000000E+00
  3.906250E-01  2.187500E+01  0.000000E+00
  3.906250E-01  2.226562E+01  0.000000E+00
  3.906250E-01  2.265625E+01  0.000000E+00
  3.906250E-01  2.304688E+01  0.000000E+00
  3.906250E-01  2.343750E+01  0.000000E+00
  3.906250E-01  2.382812E+01  0.000000E+00
  3.906250E-01  2.421875E+01  0.000000E+00
  3.906250E-01  2.460938E+01  0.000000E+00
  7.812500E-01  0.000000E+00  0.000000E+00
  7.812500E-01  3.906250E-01  0.000000E+00
  7.812500E-01  7.812500E-01  0.000000E+00
  7.812500E-01  1.171875E+00  0.000000E+00
  7.812500E-01  1.562500E+00  0.000000E+00
  7.812500E-01  1.953125E+00  0.000000E+00
  7.812500E-01  2.343750E+00  0.000000E+00
  7.812500E-01  2.734375E+00  0.000000E+00
  7.812500E-01  3.125000E+00  0.000000E+00
  7.812500E-01  3.515625E+00  0.000000E+00
  7.812500E-01  3.906250E+00  0.000000E+00
  7.812500E-01  4.296875E+00  0.000000E+00
  7.812500E-01  4.687500E+00  0.000000E+00
  7.812500E-01  5.078125E+00  0.000000E+00
  7.812500E-01  5.468750E+00  0.000000E+00
  7.812500E-01  5.859375E+00  0.000000E+00
  7.812500E-01  6.250000E+00  0.000000E+00
  7.812500E-01  6.640625E+00  0.000000E+00
  7.812500E-01  7.031250E+00  0.000000E+00
  7.812500E-01  7.421875E+00  0.000000E+00
  7.812500E-01  7.812500E+00  0.000000E+00
  7.812500E-01  8.203125E+00  0.000000E+00
  7.812500E-01  8.593750E+00  0.000000E+00
  7.812500E-01  8.984375E+00  0.000000E+00
  7.812500E-01  9.375000E+00  0.000000E+00
  7.812500E-01  9.765625E+00  0.000000E+00
  7.812500E-01  1.015625E+01  0.000000E+00
  7.812500E-01  1.054688E+01  0.000000E+00
  7.812500E-01  1.093750E+01  0.000000E+00
  7.812500E-01  1.132812E+01  0.000000E+00
  7.812500E-01  1.171875E+01  0.000000E+00
  7.812500E-01  1.210938E+01  0.000000E+00
  7.812500E-01  1.250000E+01  0.000000E+00
  7.812500E-01  1.289062E+01  0.000000E+00
  7.812500E-01  1.328125E+01  0.000000E+00
  7.812500E-01  1.367188E+01  0.000000E+00
  7.812500E-01  1.406250E+01  0.000000E+00
  7.812500E-01  1.445312E+01  0.000000E+00
  7.812500E-01  1.484375E+01  0.000000E+00
  7.812500E-01  1.523438E+01  0.000000E+00
  7.812500E-01  1.562500E+01  0.000000E+00
  7.812500E-01  1.601562E+01  0.000000E+00
  7.812500E-01  1.640625E+01  0.000000E+00
  7.812500E-01  1.679688E+01  0.000000E+00
  7.812500E-01  1.718750E+01  0.000000E+00
  7.812500E-01  1.757812E+01  0.000000E+00
  7.812500E-01  1.796875E+01  0.000000E+00
  7.812500E-01  1.835938E+01  0.000000E+00
  7.812500E-01  1.875000E+01  0.000000E+00
  7.812500E-01  1.914062E+01  0.000000E+00
  7.812500E-01  1.953125E+01  0.000000E+00
  7.812500E-01  1.992188E+01  0.000000E+00
  7.812500E-01  2.031250E+01  0.000000E+00
  7.812500E-01  2.070312E+01  0.000000E+00
  7.812500E-01  2.109375E+01  0.000000E+00
  7.812500E-01  2.148438E+01  0.000000E+00
  7.812500E-01  2.187500E+01  0.000000E+00
  7.812500E-01  2.226562E+01  0.000000E+00
  7.812500E-01  2.265625E+01  0.000000E+00
  7.812500E-01  2.304688E+01  0.000000E+00
  7.812500E-01  2.343750E+01  0.000000E+00
  7.812500E-01  2.382812E+01  0.000000E+00
  7.812500E-01  2.421875E+01  0.000000E+00
  7.812500E-01  2.460938E+01  0.000000E+00
  1.171875E+00  0.000000E+00  0.000000E+00
  1.171875E+00  3.906250E-01  0.000000E+00
  1.171875E+00  7.812500E-01  0.000000E+00
  1.171875E+00  1.171875E+00  0.000000E+00
  1.171875E+00  1.562500E+00  0.000000E+00
  1.171875E+00  1.953125E+00  0.000000E+00
  1.171875E+00  2.343750E+00  0.000000E+00
  1.171875E+00  2.734375E+00  0.000000E+00
  1.171875E+00  3.125000E+00  0.000000E+00
  1.171875E+00  3.515625E+00  0.000000E+00
  1.171875E+00  3.906250E+00  0.000000E+00
  1.171875E+00  4.296875E+00  0.000000E+00
  1.171875E+00  4.687500E+00  0.000000E+00
  1.171875E+00  5.078125E+00  0.000000E+00
  1.171875E+00  5.468750E+00  0.000000E+00
  1.171875E+00  5.859375E+00  0.000000E+00
  1.171875E+00  6.250000E+00  0.000000E+00
  1.171875E+00  6.640625E+00  0.000000E+00
  1.171875E+00  7.031250E+00  0.000000E+00
  1.171875E+00  7.421875E+00  0.000000E+00
  1.171875E+00  7.812500E+00  0.000000E+00
  1.171875E+00  8.203125E+00  0.000000E+00
  1.171875E+00  8.593750E+00  0.000000E+00
  1.171875E+00  8.984375E+00  0.000000E+00
  1.171875E+00  9.375000E+00  0.000000E+00
  1.171875E+00  9.765625E+00  0.000000E+00
  1.171875E+00  1.015625E+01  0.000000E+00
  1.171875E+00  1.054688E+01  0.000000E+00
  1.171875E+00  1.093750E+01  0.000000E+00
  1.171875E+00  1.132812E+01  0.000000E+00
  1.171875E+00  1.171875E+01  0.000000E+00
  1.171875E+00  1.210938E+01  0.000000E+00
  1.171875E+00  1.250000E+01  0.000000E+00
  1.171875E+00  1.289062E+01  0.000000E+00
  1.171875E+00  1.328125E+01  0.000000E+00
  1.171875E+00  1.367188E+01  0.000000E+00
  1.171875E+00  1.406250E+01  0.000000E+00
  1.171875E+00  1.445312E+01  0.000000E+00
[...]
POINT_DATA   4096
SCALARS CON  float  1
LOOKUP_TABLE default
  4.109967E-01
  4.101752E-01
  4.152421E-01
  4.131969E-01
  4.138682E-01
  4.081565E-01
  4.095711E-01
  4.082960E-01
  4.132884E-01
  4.113475E-01
  4.125884E-01
  4.076090E-01
  4.087698E-01
  4.057887E-01
  4.090266E-01
  4.075876E-01
  4.121307E-01
  4.112466E-01
  4.144882E-01
  4.104047E-01
  4.105166E-01
  4.054418E-01
  4.066395E-01
  4.030974E-01
  4.048740E-01
  4.013582E-01
  4.041809E-01
  4.036569E-01
  4.100432E-01
  4.104827E-01
  4.135084E-01
  4.084086E-01
  4.085959E-01
  4.058416E-01
  4.106955E-01
  4.099335E-01
  4.121831E-01
  4.069742E-01
  4.070288E-01
  4.030719E-01
  4.056152E-01
  4.029799E-01
  4.052881E-01
  4.020294E-01
  4.043105E-01
  4.019829E-01
  4.064271E-01
  4.074224E-01
  4.146602E-01
  4.146902E-01
  4.160513E-01
  4.085271E-01
  4.062671E-01
  4.019296E-01
  4.073581E-01
  4.105723E-01
  4.192015E-01
  4.192758E-01
  4.207001E-01
  4.143569E-01
  4.137481E-01
  4.092702E-01
  4.111171E-01
  4.079339E-01
  4.113862E-01
  4.119210E-01
  4.182535E-01
  4.180950E-01
  4.177944E-01
  4.100578E-01
  4.078856E-01
  4.051058E-01
  4.093923E-01
  4.092086E-01
  4.119097E-01
  4.094074E-01
  4.113727E-01
  4.087219E-01
  4.097251E-01
  4.064679E-01
  4.093113E-01
  4.097515E-01
  4.145827E-01
  4.125799E-01
  4.121628E-01
  4.064525E-01
  4.064700E-01
  4.041512E-01
  4.071697E-01
  4.054659E-01
  4.075403E-01
  4.056205E-01
  4.092617E-01
  4.091954E-01
  4.126246E-01
  4.098379E-01
  4.103823E-01
  4.069545E-01
  4.088134E-01
  4.064963E-01
  4.080882E-01
  4.051864E-01
  4.072617E-01
  4.053687E-01
  4.071153E-01
  4.031786E-01
  4.031035E-01
  3.995178E-01
  4.015846E-01
  4.004144E-01
  4.048938E-01
  4.069489E-01
  4.145446E-01
  4.159070E-01
  4.170363E-01
  4.097879E-01
  4.071979E-01
  4.045556E-01
  4.112761E-01
  4.158577E-01
  4.228988E-01
  4.208161E-01
  4.191611E-01
  4.122167E-01
  4.116423E-01
  4.089387E-01
  4.112238E-01
  4.087503E-01
  4.049485E-01
  4.106902E-01
  4.180477E-01
  4.198058E-01
  4.176669E-01
  4.109120E-01
  4.072286E-01
  4.056016E-01
  4.083192E-01
  4.097497E-01
  4.117754E-01
  4.112093E-01
  4.118338E-01
  4.103892E-01
  4.101941E-01
  4.086426E-01
  4.098879E-01
  4.106293E-01
  4.129613E-01
  4.122462E-01
  4.115485E-01
  4.085161E-01
  4.075580E-01
  4.058373E-01
  4.063216E-01
  4.052245E-01
  4.056604E-01
  4.046958E-01
  4.058837E-01
  4.055755E-01
  4.062653E-01
  4.045746E-01
  4.048872E-01
  4.051579E-01
  4.083941E-01
  4.094852E-01
  4.101330E-01
  4.073896E-01
  4.062289E-01
  4.043723E-01
  4.044658E-01
  4.021575E-01
  4.007384E-01
  3.981600E-01
  3.988429E-01
  3.998997E-01
  4.043702E-01
  4.085419E-01
  4.144000E-01
  4.163164E-01
  4.158383E-01
  4.105774E-01
  4.072029E-01
  4.055899E-01
  4.098146E-01
  4.148362E-01
  4.206551E-01
  4.209842E-01
  4.184052E-01
  4.114197E-01
  4.061520E-01
  4.011594E-01
  4.002015E-01
  4.002254E-01
  4.048188E-01
  4.117391E-01
  4.170460E-01
  4.204751E-01
  4.158702E-01
  4.096396E-01
  4.027294E-01
  4.020347E-01
  4.031791E-01
  4.076520E-01
  4.097790E-01
  4.129596E-01
  4.130174E-01
  4.133410E-01
  4.101042E-01
  4.087806E-01
  4.074267E-01
  4.103732E-01
  4.120319E-01
  4.141002E-01
  4.119474E-01
  4.107081E-01
  4.081544E-01
  4.089091E-01
  4.084723E-01
  4.095677E-01
  4.075408E-01
  4.066570E-01
  4.042752E-01
  4.053477E-01
  4.058254E-01
  4.083162E-01
  4.077606E-01
  4.080011E-01
  4.058692E-01
  4.059471E-01
  4.047170E-01
  4.063411E-01
  4.067912E-01
  4.088662E-01
  4.071624E-01
  4.054205E-01
  4.015890E-01
  4.017260E-01
  4.022928E-01
  4.056605E-01
  4.066809E-01
  4.095451E-01
  4.108275E-01
  4.133803E-01
  4.115320E-01
  4.093900E-01
  4.057984E-01
  4.074913E-01
  4.108511E-01
  4.172188E-01
  4.192253E-01
  4.189655E-01
  4.133165E-01
  4.087691E-01
  4.036203E-01
  4.023840E-01
  4.007369E-01
  4.025309E-01
  4.018229E-01
  4.108807E-01
  4.138198E-01
  4.175187E-01
  4.110278E-01
  4.075574E-01
  4.006438E-01
  4.022219E-01
  4.016257E-01
  4.073946E-01
  4.079846E-01
  4.126842E-01
  4.107150E-01
  4.123877E-01
  4.082765E-01
  4.098560E-01
  4.076340E-01
  4.115026E-01
  4.102735E-01
  4.134375E-01
  4.106002E-01
  4.122368E-01
  4.082218E-01
  4.090012E-01
  4.048266E-01
  4.062781E-01
  4.030539E-01
  4.049693E-01
  4.019435E-01
  4.046459E-01
  4.030864E-01
  4.068136E-01
  4.049455E-01
  4.077666E-01
  4.056045E-01
  4.087058E-01
  4.064157E-01
  4.088041E-01
  4.060299E-01
  4.083056E-01
  4.047896E-01
  4.055296E-01
  4.015593E-01
  4.046853E-01
  4.049406E-01
  4.106586E-01
  4.095806E-01
  4.117747E-01
  4.082525E-01
  4.100148E-01
  4.064520E-01
  4.074677E-01
  4.036376E-01
  4.063668E-01
  4.059459E-01
  4.117562E-01
  4.120001E-01
  4.154732E-01
  4.112534E-01
  4.100950E-01
  4.029675E-01
  4.014623E-01
  3.967472E-01
  4.000730E-01
  4.061580E-01
  4.120342E-01
  4.119499E-01
  4.152556E-01
  4.086299E-01
  4.059741E-01
  3.984036E-01
  3.998648E-01
  3.984292E-01
  4.047341E-01
  4.054465E-01
  4.113819E-01
  4.095036E-01
  4.115866E-01
  4.064894E-01
  4.081565E-01
  4.060087E-01
  4.117890E-01
  4.116504E-01
  4.159220E-01
  4.120278E-01
  4.128583E-01
  4.072808E-01
  4.080713E-01
  4.036585E-01
  4.061269E-01
  4.030295E-01
  4.058190E-01
  4.028796E-01
  4.073056E-01
  4.073760E-01
  4.133927E-01
  4.108665E-01
  4.113641E-01
  4.047742E-01
  4.056629E-01
  4.030970E-01
  4.084122E-01
  4.080041E-01
  4.121288E-01
  4.077179E-01
  4.078754E-01
  4.034244E-01
  4.085535E-01
  4.102882E-01
  4.168963E-01
  4.133173E-01
  4.125737E-01
  4.057625E-01
  4.068672E-01
  4.032745E-01
  4.057573E-01
  4.024218E-01
  4.062122E-01
  4.052852E-01
  4.104224E-01
  4.082470E-01
  4.106808E-01
  4.066407E-01
  4.091387E-01
  4.061637E-01
  4.090797E-01
  4.054878E-01
  4.080851E-01
  4.049179E-01
  4.096715E-01
  4.092273E-01
  4.117451E-01
  4.071607E-01
  4.066743E-01
  4.019795E-01
  4.035554E-01
  4.016996E-01
  4.058862E-01
  4.056564E-01
  4.096711E-01
  4.072637E-01
  4.086638E-01
  4.054835E-01
  4.088061E-01
  4.088195E-01
  4.141352E-01
  4.135047E-01
  4.162362E-01
  4.125990E-01
  4.127600E-01
  4.068590E-01
  4.052445E-01
  3.995076E-01
  4.007977E-01
  3.994599E-01
  4.039858E-01
  4.035632E-01
  4.080456E-01
  4.079458E-01
  4.123442E-01
  4.101407E-01
  4.113147E-01
  4.076170E-01
  4.101720E-01
  4.087973E-01
  4.120794E-01
  4.093959E-01
  4.105547E-01
  4.060062E-01
  4.064443E-01
  4.036260E-01
  4.085601E-01
  4.106667E-01
  4.167747E-01
  4.142176E-01
  4.131949E-01
  4.066007E-01
  4.066352E-01
  4.035976E-01
  4.059745E-01
  4.031027E-01
  4.049553E-01
  4.023093E-01
  4.051467E-01
  4.035825E-01
  4.072987E-01
  4.063108E-01
  4.099506E-01
  4.077087E-01
  4.091239E-01
  4.049902E-01
  4.065043E-01
  4.072148E-01
  4.081841E-01
  4.079218E-01
  4.105327E-01
  4.090795E-01
  4.089321E-01
  4.055458E-01
  4.055641E-01
  4.041036E-01
  4.066185E-01
  4.070331E-01
  4.098494E-01
  4.086429E-01
  4.089367E-01
  4.063963E-01
  4.081566E-01
  4.094574E-01
  4.148181E-01
  4.164922E-01
  4.182937E-01
  4.145453E-01
  4.120418E-01
  4.065786E-01
  4.046585E-01
  4.015566E-01
  4.031221E-01
  4.033614E-01
  4.065770E-01
  4.068196E-01
  4.103843E-01
  4.123084E-01
  4.167383E-01
  4.157358E-01
  4.143695E-01
  4.093932E-01
  4.091339E-01
  4.087560E-01
  4.122772E-01
  4.121907E-01
  4.129387E-01
  4.091318E-01
  4.077586E-01
  4.054811E-01
  4.089988E-01
  4.115038E-01
  4.153371E-01
  4.128628E-01
  4.108265E-01
  4.066139E-01
  4.072330E-01
  4.062116E-01
  4.075054E-01
  4.055323E-01
  4.068595E-01
  4.063330E-01
  4.083694E-01
  4.063483E-01
  4.062376E-01
  4.042822E-01
  4.071508E-01
  4.086473E-01
  4.122661E-01
  4.109361E-01
  4.104988E-01
  4.025406E-01
  4.040487E-01
  4.055196E-01
  4.084998E-01
  4.097983E-01
  4.115723E-01
  4.112464E-01
  4.114380E-01
  4.102156E-01
  4.106892E-01
  4.103741E-01
  4.109472E-01
  4.093150E-01
  4.084979E-01
  4.074092E-01
  4.094444E-01
  4.117325E-01
  4.152799E-01
  4.161020E-01
  4.161006E-01
  4.132093E-01
  4.107162E-01
  4.067046E-01
  4.042408E-01
  4.018807E-01
  4.029444E-01
  4.046162E-01
  4.077267E-01
  4.085017E-01
  4.096741E-01
  4.098063E-01
  4.115152E-01
  4.115424E-01
  4.122207E-01
  4.120084E-01
  4.139323E-01
  4.144958E-01
  4.146184E-01
  4.115306E-01
  4.089830E-01
  4.059632E-01
  4.055842E-01
  4.053226E-01
  4.072599E-01
  4.082143E-01
  4.096725E-01
  4.086911E-01
  4.084599E-01
  4.077187E-01
  4.092312E-01
  4.095166E-01
  4.099466E-01
  4.082090E-01
  4.079714E-01
  4.075310E-01
  4.088405E-01
  4.083639E-01
  4.082698E-01
  4.067967E-01
  4.071242E-01
  4.065882E-01
  4.067902E-01
  4.048280E-01
  4.038317E-01
  4.033972E-01
  4.031827E-01
  4.048414E-01
  4.084334E-01
  4.109861E-01
  4.125197E-01
  4.119859E-01
  4.114442E-01
  4.106441E-01
  4.111834E-01
  4.116611E-01
  4.124255E-01
  4.115070E-01
  4.100507E-01
  4.079370E-01
  4.078014E-01
  4.092811E-01
  4.127745E-01
  4.150666E-01
  4.154555E-01
  4.125980E-01
  4.092070E-01
  4.060288E-01
  4.053288E-01
  4.061133E-01
  4.089055E-01
  4.111924E-01
  4.125887E-01
  4.115680E-01
  4.106941E-01
  4.104632E-01
  4.119530E-01
  4.123848E-01
  4.119708E-01
  4.104986E-01
  4.105880E-01
  4.110913E-01
  4.117971E-01
  4.105034E-01
  4.087252E-01
  4.064995E-01
  4.059909E-01
  4.062936E-01
  4.078575E-01
  4.082433E-01
  4.078007E-01
  4.060586E-01
  4.059536E-01
  4.073906E-01
  4.104747E-01
  4.117538E-01
  4.113425E-01
  4.095683E-01
  4.099709E-01
  4.119051E-01
  4.144229E-01
  4.138108E-01
  4.110152E-01
  4.072231E-01
  4.060556E-01
  4.066414E-01
  4.082688E-01
  4.077504E-01
  4.059655E-01
  4.002110E-01
  4.017607E-01
  4.037322E-01
  4.072934E-01
  4.096360E-01
  4.121422E-01
  4.124368E-01
  4.126622E-01
  4.115425E-01
  4.119011E-01
  4.117389E-01
  4.121593E-01
  4.103826E-01
  4.088388E-01
  4.068656E-01
  4.075152E-01
  4.087391E-01
  4.115251E-01
  4.125607E-01
  4.129519E-01
  4.106443E-01
  4.084418E-01
  4.054519E-01
  4.047032E-01
  4.049405E-01
  4.081435E-01
  4.110344E-01
  4.134798E-01
  4.121307E-01
  4.097696E-01
  4.064610E-01
  4.056795E-01
  4.055302E-01
  4.075372E-01
  4.093382E-01
  4.122152E-01
  4.126730E-01
  4.114760E-01
  4.071223E-01
  4.038505E-01
  4.018092E-01
  4.033626E-01
  4.050908E-01
  4.070875E-01
  4.064900E-01
  4.059833E-01
  4.050922E-01
  4.069047E-01
  4.091542E-01
  4.122390E-01
  4.123942E-01
  4.113128E-01
  4.085382E-01
  4.081876E-01
  4.090804E-01
  4.120778E-01
  4.131770E-01
  4.133433E-01
  4.110969E-01
  4.095678E-01
  4.071969E-01
  4.056901E-01
  4.028944E-01
  4.014093E-01
  4.034824E-01
  4.038965E-01
  4.045910E-01
  4.081932E-01
  4.095003E-01
  4.110669E-01
  4.093246E-01
  4.088802E-01
  4.072298E-01
  4.085819E-01
  4.089817E-01
  4.109505E-01
  4.097421E-01
  4.088279E-01
  4.056661E-01
  4.055393E-01
  4.059205E-01
  4.100233E-01
  4.123623E-01
  4.144176E-01
  4.117044E-01
  4.090383E-01
  4.050069E-01
  4.049934E-01
  4.058571E-01
  4.103264E-01
  4.129278E-01
  4.153272E-01
  4.131833E-01
  4.114236E-01
  4.084138E-01
  4.085875E-01
  4.075308E-01
  4.079364E-01
  4.063835E-01
  4.072699E-01
  4.069580E-01
  4.080764E-01
  4.062440E-01
  4.055252E-01
  4.035431E-01
  4.048209E-01
  4.056010E-01
  4.083302E-01
  4.081359E-01
  4.084661E-01
  4.068815E-01
  4.084290E-01
  4.095524E-01
  4.121993E-01
  4.108517E-01
  4.091848E-01
  4.057875E-01
  4.066510E-01
  4.084512E-01
  4.127539E-01
  4.134943E-01
  4.137138E-01
  4.111749E-01
  4.111371E-01
  4.101448E-01
  4.107315E-01
  4.082638E-01
  4.066019E-01
  4.017896E-01
  4.042242E-01
  4.046623E-01
  4.078366E-01
  4.082612E-01
  4.106407E-01
  4.092317E-01
  4.093374E-01
  4.067189E-01
  4.076314E-01
  4.069188E-01
  4.086881E-01
  4.067853E-01
  4.067333E-01
  4.046132E-01
  4.065164E-01
  4.071218E-01
  4.108145E-01
  4.115430E-01
  4.137868E-01
  4.117491E-01
  4.106321E-01
  4.060167E-01
  4.045553E-01
  4.024930E-01
  4.055140E-01
  4.075198E-01
  4.116565E-01
  4.109464E-01
  4.105042E-01
  4.065746E-01
  4.059913E-01
  4.042473E-01
  4.063355E-01
  4.065736E-01
  4.094260E-01
  4.086935E-01
  4.088680E-01
  4.051625E-01
  4.042440E-01
  4.022893E-01
  4.045961E-01
  4.049663E-01
  4.074481E-01
  4.065936E-01
  4.082098E-01
  4.077697E-01
  4.104201E-01
  4.101214E-01
  4.111050E-01
  4.078865E-01
  4.064911E-01
  4.031262E-01
  4.040170E-01
  4.041423E-01
  4.080202E-01
  4.095361E-01
  4.131082E-01
  4.129161E-01
  4.137307E-01
  4.102185E-01
  4.082152E-01
  4.037571E-01
  4.032077E-01
  4.060274E-01
  4.068220E-01
  4.062943E-01
  4.086544E-01
  4.088311E-01
  4.101408E-01
  4.079030E-01
  4.070608E-01
  4.044716E-01
  4.052373E-01
  4.049582E-01
  4.070267E-01
  4.062499E-01
  4.068035E-01
  4.051085E-01
  4.063745E-01
  4.067783E-01
  4.103836E-01
  4.120345E-01
  4.148392E-01
  4.134584E-01
  4.121578E-01
  4.076743E-01
  4.058922E-01
  4.036682E-01
  4.054949E-01
  4.063838E-01
  4.093969E-01
  4.092779E-01
  4.103654E-01
  4.090995E-01
  4.102084E-01
  4.089163E-01
  4.089131E-01
  4.061439E-01
  4.059296E-01
  4.047242E-01
  4.066427E-01
  4.066351E-01
  4.083428E-01
  4.072662E-01
  4.079763E-01
  4.067088E-01
  4.081077E-01
  4.076978E-01
  4.092865E-01
  4.082965E-01
  4.091311E-01
  4.075183E-01
  4.074943E-01
  4.046764E-01
  4.040976E-01
  4.027044E-01
  4.053383E-01
  4.069290E-01
  4.102500E-01
  4.100900E-01
  4.110470E-01
  4.095963E-01
  4.104242E-01
  4.090364E-01
  4.095344E-01
  4.076473E-01
  4.078434E-01
  4.062601E-01
  4.075624E-01
  4.071265E-01
  4.073835E-01
  4.078159E-01
  4.093698E-01
  4.095445E-01
  4.091077E-01
  4.072983E-01
  4.064700E-01
  4.055884E-01
  4.055418E-01
  4.047633E-01
  4.052062E-01
  4.062100E-01
  4.087528E-01
  4.102556E-01
  4.113818E-01
  4.113793E-01
  4.124461E-01
  4.129094E-01
  4.127715E-01
  4.097838E-01
  4.059889E-01
  4.019075E-01
  4.005912E-01
  4.011668E-01
  4.039286E-01
  4.057208E-01
  4.066813E-01
  4.057512E-01
  4.055565E-01
  4.056909E-01
  4.073742E-01
  4.084201E-01
  4.093641E-01
  4.085731E-01
  4.077801E-01
  4.064558E-01
  4.065798E-01
  4.066942E-01
  4.074337E-01
  4.069546E-01
  4.068718E-01
  4.064812E-01
  4.072945E-01
  4.073904E-01
  4.073801E-01
  4.057503E-01
  4.044488E-01
  4.031002E-01
  4.037465E-01
  4.049418E-01
  4.071123E-01
  4.079070E-01
  4.084390E-01
  4.079667E-01
  4.083369E-01
  4.078212E-01
  4.070050E-01
  4.045828E-01
  4.031424E-01
  4.026877E-01
  4.046217E-01
  4.133671E-01
  4.114612E-01
  4.095820E-01
  4.075438E-01
  4.078791E-01
  4.077482E-01
  4.082598E-01
  4.072130E-01
  4.070313E-01
  4.059957E-01
  4.060967E-01
  4.052017E-01
  4.055428E-01
  4.055767E-01
  4.075506E-01
  4.089670E-01
  4.110061E-01
  4.112812E-01
  4.122928E-01
  4.124662E-01
  4.134511E-01
  4.122479E-01
  4.104510E-01
  4.066426E-01
  4.040930E-01
  4.018449E-01
  4.022921E-01
  4.029428E-01
  4.048162E-01
  4.052429E-01
  4.065037E-01
  4.071632E-01
  4.091158E-01
  4.093835E-01
  4.092745E-01
  4.071514E-01
  4.062866E-01
  4.056641E-01
  4.073277E-01
  4.083053E-01
  4.094934E-01
  4.085688E-01
  4.084024E-01
  4.079550E-01
  4.091333E-01
  4.086879E-01
  4.077546E-01
  4.048001E-01
  4.032196E-01
  4.019755E-01
  4.032533E-01
  4.048481E-01
  4.084193E-01
  4.109910E-01
  4.130751E-01
  4.115688E-01
  4.089412E-01
  4.047352E-01
  4.024550E-01
  4.008026E-01
  4.020587E-01
  4.042497E-01
  4.087060E-01
  4.116732E-01
  4.149641E-01
  4.133561E-01
  4.106248E-01
  4.066697E-01
  4.062336E-01
  4.063060E-01
  4.083766E-01
  4.084427E-01
  4.091309E-01
  4.077652E-01
  4.072515E-01
  4.048216E-01
  4.041650E-01
  4.038032E-01
  4.071661E-01
  4.100832E-01
  4.130507E-01
  4.120580E-01
  4.112448E-01
  4.097917E-01
  4.110863E-01
  4.107751E-01
  4.100053E-01
  4.057326E-01
  4.024134E-01
  3.992304E-01
  4.000350E-01
  4.012489E-01
  4.037765E-01
  4.033323E-01
  4.032838E-01
  4.027011E-01
  4.056963E-01
  4.086226E-01
  4.121970E-01
  4.119078E-01
  4.107417E-01
  4.072834E-01
  4.059758E-01
  4.046292E-01
  4.057558E-01
  4.058110E-01
  4.073749E-01
  4.076578E-01
  4.092716E-01
  4.085144E-01
  4.076655E-01
  4.043764E-01
  4.029523E-01
  4.018426E-01
  4.042594E-01
  4.066999E-01
  4.106367E-01
  4.115976E-01
  4.115250E-01
  4.080153E-01
  4.055275E-01
  4.024558E-01
  4.017151E-01
  4.000333E-01
  4.006265E-01
  4.018358E-01
  4.069153E-01
  4.113142E-01
  4.196573E-01
  4.159497E-01
  4.119650E-01
  4.075912E-01
  4.063392E-01
  4.050401E-01
  4.055720E-01
  4.051161E-01
  4.062202E-01
  4.059068E-01
  4.062800E-01
  4.046853E-01
  4.044140E-01
  4.038477E-01
  4.059992E-01
  4.075940E-01
  4.099204E-01
  4.095829E-01
  4.096598E-01
  4.085494E-01
  4.092786E-01
  4.087168E-01
  4.087183E-01
  4.064788E-01
  4.052417E-01
  4.034149E-01
  4.042079E-01
  4.046313E-01
  4.061641E-01
  4.056284E-01
  4.064489E-01
  4.072863E-01
  4.106713E-01
  4.122158E-01
  4.127591E-01
  4.097417E-01
  4.076061E-01
  4.054614E-01
  4.061677E-01
  4.061084E-01
  4.069389E-01
  4.062673E-01
  4.077605E-01
  4.091623E-01
  4.116786E-01
  4.105697E-01
  4.079693E-01
  4.032027E-01
  4.014824E-01
  4.013016E-01
  4.044799E-01
  4.070452E-01
  4.105681E-01
  4.116296E-01
  4.120854E-01
  4.091140E-01
  4.062616E-01
  4.024523E-01
  4.014115E-01
  4.009961E-01
  4.040411E-01
  4.079835E-01
  4.143864E-01
  4.181927E-01
  4.153675E-01
  4.131735E-01
  4.108315E-01
  4.066219E-01
  4.057630E-01
  4.045368E-01
  4.057950E-01
  4.050979E-01
  4.060593E-01
  4.050275E-01
  4.055281E-01
  4.036262E-01
  4.035178E-01
  4.025835E-01
  4.051437E-01
  4.065393E-01
  4.085929E-01
  4.065984E-01
  4.054359E-01
  4.035045E-01
  4.055132E-01
  4.066926E-01
  4.087697E-01
  4.069260E-01
  4.057357E-01
  4.033886E-01
  4.048750E-01
  4.058502E-01
  4.081074E-01
  4.067023E-01
  4.063923E-01
  4.056340E-01
  4.090592E-01
  4.114271E-01
  4.140804E-01
  4.121555E-01
  4.102849E-01
  4.063326E-01
  4.051134E-01
  4.031723E-01
  4.041396E-01
  4.042164E-01
  4.070042E-01
  4.081922E-01
  4.103503E-01
  4.086204E-01
  4.068310E-01
  4.026929E-01
  4.017217E-01
  4.010966E-01
  4.041521E-01
  4.060063E-01
  4.090372E-01
  4.085388E-01
  4.082660E-01
  4.056466E-01
  4.059716E-01
  4.059871E-01
  4.083536E-01
  4.079567E-01
  4.085782E-01
  4.079474E-01
  4.109169E-01
  4.128794E-01
  4.141242E-01
  4.104078E-01
  4.103307E-01
  4.067985E-01
  4.075679E-01
  4.044067E-01
  4.049480E-01
  4.017860E-01
  4.031051E-01
  4.012997E-01
  4.039186E-01
  4.029192E-01
  4.057739E-01
  4.045454E-01
  4.068508E-01
  4.047215E-01
  4.057830E-01
  4.024657E-01
  4.032629E-01
  4.013512E-01
  4.048502E-01
  4.054725E-01
  4.097301E-01
  4.088182E-01
  4.106316E-01
  4.084008E-01
  4.107739E-01
  4.096632E-01
  4.118778E-01
  4.093936E-01
  4.111701E-01
  4.104427E-01
  4.142306E-01
  4.125550E-01
  4.121127E-01
  4.063762E-01
  4.055978E-01
  4.032216E-01
  4.062261E-01
  4.053210E-01
  4.075919E-01
  4.059243E-01
  4.090483E-01
  4.089948E-01
  4.119549E-01
  4.085598E-01
  4.069446E-01
  4.014213E-01
  4.017138E-01
  4.004206E-01
  4.042166E-01
  4.042835E-01
  4.079457E-01
  4.073552E-01
  4.102256E-01
  4.088880E-01
  4.116027E-01
  4.108699E-01
  4.141142E-01
  4.127735E-01
  4.146210E-01
  4.124882E-01
  4.146779E-01
  4.128960E-01
  4.072866E-01
  4.058985E-01
  4.089693E-01
  4.061308E-01
  4.083238E-01
  4.054295E-01
  4.075035E-01
  4.038379E-01
  4.050404E-01
  4.015349E-01
  4.041762E-01
  4.025650E-01
  4.065909E-01
  4.055410E-01
  4.093469E-01
  4.068747E-01
  4.078591E-01
  4.023103E-01
  4.022821E-01
  3.993900E-01
  4.044342E-01
  4.056379E-01
  4.109494E-01
  4.086654E-01
  4.100531E-01
  4.067336E-01
  4.102061E-01
  4.092143E-01
  4.123545E-01
  4.085790E-01
  4.096319E-01
  4.068151E-01
  4.105672E-01
  4.089417E-01
  4.110905E-01
  4.068731E-01
  4.077623E-01
  4.040003E-01
  4.058853E-01
  4.031021E-01
  4.063497E-01
  4.054497E-01
  4.101814E-01
  4.090395E-01
  4.115406E-01
  4.072704E-01
  4.075462E-01
  4.030881E-01
  4.048279E-01