# vtk DataFile Version 2.0
title
ASCII
DATASET STRUCTURED_GRID
DIMENSIONS   64   64    1
POINTS   4096  float
  0.000000E+00  0.000000E+00  0.000000E+00
  0.000000E+00  3.906250E-01  0.000000E+00
  0.000000E+00  7.812500E-01  0.000000E+00
  0.000000E+00  1.171875E+00  0.000000E+00
  0.000000E+00  1.562500E+00  0.000000E+00
  0.000000E+00  1.953125E+00  0.000000E+00
  0.000000E+00  2.343750E+00  0.000000E+00
  0.000000E+00  2.734375E+00  0.000000E+00
  0.000000E+00  3.125000E+00  0.000000E+00
  0.000000E+00  3.515625E+00  0.000000E+00
  0.000000E+00  3.906250E+00  0.000000E+00
  0.000000E+00  4.296875E+00  0.000000E+00
  0.000000E+00  4.687500E+00  0.000000E+00
  0.000000E+00  5.078125E+00  0.000000E+00
  0.000000E+00  5.468750E+00  0.000000E+00
  0.000000E+00  5.859375E+00  0.000000E+00
  0.000000E+00  6.250000E+00  0.000000E+00
  0.000000E+00  6.640625E+00  0.000000E+00
  0.000000E+00  7.031250E+00  0.000000E+00
  0.000000E+00  7.421875E+00  0.000000E+00
  0.000000E+00  7.812500E+00  0.000000E+00
  0.000000E+00  8.203125E+00  0.000000E+00
  0.000000E+00  8.593750E+00  0.000000E+00
  0.000000E+00  8.984375E+00  0.000000E+00
  0.000000E+00  9.375000E+00  0.000000E+00
  0.000000E+00  9.765625E+00  0.000000E+00
  0.000000E+00  1.015625E+01  0.000000E+00
  0.000000E+00  1.054688E+01  0.000000E+00
  0.000000E+00  1.093750E+01  0.000000E+00
  0.000000E+00  1.132812E+01  0.000000E+00
  0.000000E+00  1.171875E+01  0.000000E+00
  0.000000E+00  1.210938E+01  0.000000E+00
  0.000000E+00  1.250000E+01  0.000000E+00
  0.000000E+00  1.289062E+01  0.000000E+00
  0.000000E+00  1.328125E+01  0.000000E+00
  0.000000E+00  1.367188E+01  0.000000E+00
  0.000000E+00  1.406250E+01  0.000000E+00
  0.000000E+00  1.445312E+01  0.000000E+00
  0.000000E+00  1.484375E+01  0.000000E+00
  0.000000E+00  1.523438E+01  0.000000E+00
  0.000000E+00  1.562500E+01  0.000000E+00
  0.000000E+00  1.601562E+01  0.000000E+00
  0.000000E+00  1.640625E+01  0.000000E+00
  0.000000E+00  1.679688E+01  0.000000E+00
  0.000000E+00  1.718750E+01  0.000000E+00
  0.000000E+00  1.757812E+01  0.000000E+00
  0.000000E+00  1.796875E+01  0.000000E+00
  0.000000E+00  1.835938E+01  0.000000E+00
  0.000000E+00  1.875000E+01  0.000000E+00
  0.000000E+00  1.914062E+01  0.000000E+00
  0.000000E+00  1.953125E+01  0.000000E+00
  0.000000E+00  1.992188E+01  0.000000E+00
  0.000000E+00  2.031250E+01  0.000000E+00
  0.000000E+00  2.070312E+01  0.000000E+00
  0.000000E+00  2.109375E+01  0.000000E+00
  0.000000E+00  2.148438E+01  0.000000E+00
  0.000000E+00  2.187500E+01  0.000000E+00
  0.000000E+00  2.226562E+01  0.000000E+00
  0.000000E+00  2.265625E+01  0.000000E+00
  0.000000E+00  2.304688E+01  0.000000E+00
  0.000000E+00  2.343750E+01  0.000000E+00
  0.000000E+00  2.382812E+01  0.000000E+00
  0.000000E+00  2.421875E+01  0.000000E+00
  0.000000E+00  2.460938E+01  0.000000E+00
  3.906250E-01  0.000000E+00  0.000000E+00
  3.906250E-01  3.906250E-01  0.000000E+00
  3.906250E-01  7.812500E-01  0.000000E+00
  3.906250E-01  1.171875E+00  0.000000E+00
  3.906250E-01  1.562500E+00  0.000000E+00
  3.906250E-01  1.953125E+00  0.000000E+00
  3.906250E-01  2.343750E+00  0.000000E+00
  3.906250E-01  2.734375E+00  0.000000E+00
  3.906250E-01  3.125000E+00  0.000000E+00
  3.906250E-01  3.515625E+00  0.000000E+00
  3.906250E-01  3.906250E+00  0.000000E+00
  3.906250E-01  4.296875E+00  0.000000E+00
  3.906250E-01  4.687500E+00  0.000000E+00
  3.906250E-01  5.078125E+00  0.000000E+00
  3.906250E-01  5.468750E+00  0.000000E+00
  3.906250E-01  5.859375E+00  0.000000E+00
  3.906250E-01  6.250000E+00  0.000000E+00
  3.906250E-01  6.640625E+00  0.000000E+00
  3.906250E-01  7.031250E+00  0.000000E+00
  3.906250E-01  7.421875E+00  0.000000E+00
  3.906250E-01  7.812500E+00  0.000000E+00
  3.906250E-01  8.203125E+00  0.000000E+00
  3.906250E-01  8.593750E+00  0.000000E+00
  3.906250E-01  8.984375E+00  0.000000E+00
  3.906250E-01  9.375000E+00  0.000000E+00
  3.906250E-01  9.765625E+00  0.000000E+00
  3.906250E-01  1.015625E+01  0.000000E+00
  3.906250E-01  1.054688E+01  0.000000E+00
  3.906250E-01  1.093750E+01  0.000000E+00
  3.906250E-01  1.132812E+01  0.000000E+00
  3.906250E-01  1.171875E+01  0.000000E+00
  3.906250E-01  1.210938E+01  0.000000E+00
  3.906250E-01  1.250000E+01  0.000000E+00
  3.906250E-01  1.289062E+01  0.000000E+00
  3.906250E-01  1.328125E+01  0.000000E+00
  3.906250E-01  1.367188E+01  0.000000E+00
  3.906250E-01  1.406250E+01  0.000000E+00
  3.906250E-01  1.445312E+01  0.000000E+00
  3.906250E-01  1.484375E+01  0.000000E+00
  3.906250E-01  1.523438E+01  0.000000E+00
  3.906250E-01  1.562500E+01  0.000000E+00
  3.906250E-01  1.601562E+01  0.000000E+00
  3.906250E-01  1.640625E+01  0.000000E+00
  3.906250E-01  1.679688E+01  0.000000E+00
  3.906250E-01  1.718750E+01  0.000000E+00
  3.906250E-01  1.757812E+01  0.000000E+00
  3.906250E-01  1.796875E+01  0.000000E+00
  3.906250E-01  1.835938E+01  0.000000E+00
  3.906250E-01  1.875000E+01  0.000000E+00
  3.906250E-01  1.914062E+01  0.000000E+00
  3.906250E-01  1.953125E+01  0.000000E+00
  3.906250E-01  1.992188E+01  0.000000E+00
  3.906250E-01  2.031250E+01  0.000000E+00
  3.906250E-01  2.070312E+01  0.000000E+00
  3.906250E-01  2.109375E+01  0.000000E+00
  3.906250E-01  2.148438E+01  0.000000E+00
  3.906250E-01  2.187500E+01  0.000000E+00
  3.906250E-01  2.226562E+01  0.000000E+00
  3.906250E-01  2.265625E+01  0.000000E+00
  3.906250E-01  2.304688E+01  0.000000E+00
  3.906250E-01  2.343750E+01  0.000000E+00
  3.906250E-01  2.382812E+01  0.000000E+00
  3.906250E-01  2.421875E+01  0.000000E+00
  3.906250E-01  2.460938E+01  0.000000E+00
  7.812500E-01  0.000000E+00  0.000000E+00
  7.812500E-01  3.906250E-01  0.000000E+00
  7.812500E-01  7.812500E-01  0.000000E+00
  7.812500E-01  1.171875E+00  0.000000E+00
  7.812500E-01  1.562500E+00  0.000000E+00
  7.812500E-01  1.953125E+00  0.000000E+00
  7.812500E-01  2.343750E+00  0.000000E+00
  7.812500E-01  2.734375E+00  0.000000E+00
  7.812500E-01  3.125000E+00  0.000000E+00
  7.812500E-01  3.515625E+00  0.000000E+00
  7.812500E-01  3.906250E+00  0.000000E+00
  7.812500E-01  4.296875E+00  0.000000E+00
  7.812500E-01  4.687500E+00  0.000000E+00
  7.812500E-01  5.078125E+00  0.000000E+00
  7.812500E-01  5.468750E+00  0.000000E+00
  7.812500E-01  5.859375E+00  0.000000E+00
  7.812500E-01  6.250000E+00  0.000000E+00
  7.812500E-01  6.640625E+00  0.000000E+00
  7.812500E-01  7.031250E+00  0.000000E+00
  7.812500E-01  7.421875E+00  0.000000E+00
  7.812500E-01  7.812500E+00  0.000000E+00
  7.812500E-01  8.203125E+00  0.000000E+00
  7.812500E-01  8.593750E+00  0.000000E+00
  7.812500E-01  8.984375E+00  0.000000E+00
  7.812500E-01  9.375000E+00  0.000000E+00
  7.812500E-01  9.765625E+00  0.000000E+00
  7.812500E-01  1.015625E+01  0.000000E+00
  7.812500E-01  1.054688E+01  0.000000E+00
  7.812500E-01  1.093750E+01  0.000000E+00
  7.812500E-01  1.132812E+01  0.000000E+00
  7.812500E-01  1.171875E+01  0.000000E+00
  7.812500E-01  1.210938E+01  0.000000E+00
  7.812500E-01  1.250000E+01  0.000000E+00
  7.812500E-01  1.289062E+01  0.000000E+00
  7.812500E-01  1.328125E+01  0.000000E+00
  7.812500E-01  1.367188E+01  0.000000E+00
  7.812500E-01  1.406250E+01  0.000000E+00
  7.812500E-01  1.445312E+01  0.000000E+00
  7.812500E-01  1.484375E+01  0.000000E+00
  7.812500E-01  1.523438E+01  0.000000E+00
  7.812500E-01  1.562500E+01  0.000000E+00
  7.812500E-01  1.601562E+01  0.000000E+00
  7.812500E-01  1.640625E+01  0.000000E+00
  7.812500E-01  1.679688E+01  0.000000E+00
  7.812500E-01  1.718750E+01  0.000000E+00
  7.812500E-01  1.757812E+01  0.000000E+00
  7.812500E-01  1.796875E+01  0.000000E+00
  7.812500E-01  1.835938E+01  0.000000E+00
  7.812500E-01  1.875000E+01  0.000000E+00
  7.812500E-01  1.914062E+01  0.000000E+00
  7.812500E-01  1.953125E+01  0.000000E+00
  7.812500E-01  1.992188E+01  0.000000E+00
  7.812500E-01  2.031250E+01  0.000000E+00
  7.812500E-01  2.070312E+01  0.000000E+00
  7.812500E-01  2.109375E+01  0.000000E+00
  7.812500E-01  2.148438E+01  0.000000E+00
  7.812500E-01  2.187500E+01  0.000000E+00
  7.812500E-01  2.226562E+01  0.000000E+00
  7.812500E-01  2.265625E+01  0.000000E+00
  7.812500E-01  2.304688E+01  0.000000E+00
  7.812500E-01  2.343750E+01  0.000000E+00
  7.812500E-01  2.382812E+01  0.000000E+00
  7.812500E-01  2.421875E+01  0.000000E+00
  7.812500E-01  2.460938E+01  0.000000E+00
  1.171875E+00  0.000000E+00  0.000000E+00
  1.171875E+00  3.906250E-01  0.000000E+00
  1.171875E+00  7.812500E-01  0.000000E+00
  1.171875E+00  1.171875E+00  0.000000E+00
  1.171875E+00  1.562500E+00  0.000000E+00
  1.171875E+00  1.953125E+00  0.000000E+00
  1.171875E+00  2.343750E+00  0.000000E+00
  1.171875E+00  2.734375E+00  0.000000E+00
  1.171875E+00  3.125000E+00  0.000000E+00
  1.171875E+00  3.515625E+00  0.000000E+00
  1.171875E+00  3.906250E+00  0.000000E+00
  1.171875E+00  4.296875E+00  0.000000E+00
  1.171875E+00  4.687500E+00  0.000000E+00
  1.171875E+00  5.078125E+00  0.000000E+00
  1.171875E+00  5.468750E+00  0.000000E+00
  1.171875E+00  5.859375E+00  0.000000E+00
  1.171875E+00  6.250000E+00  0.000000E+00
  1.171875E+00  6.640625E+00  0.000000E+00
  1.171875E+00  7.031250E+00  0.000000E+00
  1.171875E+00  7.421875E+00  0.000000E+00
  1.171875E+00  7.812500E+00  0.000000E+00
  1.171875E+00  8.203125E+00  0.000000E+00
  1.171875E+00  8.593750E+00  0.000000E+00
  1.171875E+00  8.984375E+00  0.000000E+00
  1.171875E+00  9.375000E+00  0.000000E+00
  1.171875E+00  9.765625E+00  0.000000E+00
  1.171875E+00  1.015625E+01  0.000000E+00
  1.171875E+00  1.054688E+01  0.000000E+00
  1.171875E+00  1.093750E+01  0.000000E+00
  1.171875E+00  1.132812E+01  0.000000E+00
  1.171875E+00  1.171875E+01  0.000000E+00
  1.171875E+00  1.210938E+01  0.000000E+00
  1.171875E+00  1.250000E+01  0.000000E+00
  1.171875E+00  1.289062E+01  0.000000E+00
  1.171875E+00  1.328125E+01  0.000000E+00
  1.171875E+00  1.367188E+01  0.000000E+00
  1.171875E+00  1.406250E+01  0.000000E+00
  1.171875E+00  1.445312E+01  0.000000E+00
[...]
POINT_DATA   4096
SCALARS CON  float  1
LOOKUP_TABLE default
  3.446050E-01
  3.445382E-01
  3.488085E-01
  3.465111E-01
  3.478098E-01
  3.436342E-01
  3.451481E-01
  3.428133E-01
  3.461407E-01
  3.442052E-01
  3.463846E-01
  3.427528E-01
  3.440115E-01
  3.409448E-01
  3.439103E-01
  3.427747E-01
  3.468946E-01
  3.454937E-01
  3.480930E-01
  3.445980E-01
  3.454493E-01
  3.411091E-01
  3.418850E-01
  3.379546E-01
  3.394040E-01
  3.366163E-01
  3.397567E-01
  3.388413E-01
  3.431901E-01
  3.419931E-01
  3.447270E-01
  3.416298E-01
  3.435156E-01
  3.410888E-01
  3.443337E-01
  3.426229E-01
  3.451949E-01
  3.418021E-01
  3.427911E-01
  3.387769E-01
  3.400941E-01
  3.368450E-01
  3.388125E-01
  3.360774E-01
  3.387823E-01
  3.374593E-01
  3.422580E-01
  3.429297E-01
  3.483800E-01
  3.471685E-01
  3.485920E-01
  3.431720E-01
  3.427357E-01
  3.392151E-01
  3.434368E-01
  3.448304E-01
  3.514919E-01
  3.512379E-01
  3.531882E-01
  3.477466E-01
  3.465533E-01
  3.410682E-01
  3.421897E-01
  3.401850E-01
  3.462991E-01
  3.470948E-01
  3.508539E-01
  3.492771E-01
  3.491770E-01
  3.443689E-01
  3.435093E-01
  3.406824E-01
  3.430105E-01
  3.426783E-01
  3.456976E-01
  3.443393E-01
  3.456333E-01
  3.429745E-01
  3.440738E-01
  3.424075E-01
  3.451026E-01
  3.446256E-01
  3.472292E-01
  3.451988E-01
  3.456356E-01
  3.420716E-01
  3.422870E-01
  3.396275E-01
  3.410583E-01
  3.393733E-01
  3.415076E-01
  3.405413E-01
  3.434857E-01
  3.430202E-01
  3.456900E-01
  3.440313E-01
  3.450827E-01
  3.421256E-01
  3.426941E-01
  3.401303E-01
  3.415950E-01
  3.399093E-01
  3.417450E-01
  3.396891E-01
  3.405722E-01
  3.375422E-01
  3.380343E-01
  3.355763E-01
  3.375247E-01
  3.371316E-01
  3.413388E-01
  3.427025E-01
  3.472594E-01
  3.467224E-01
  3.476270E-01
  3.436147E-01
  3.435485E-01
  3.420588E-01
  3.466066E-01
  3.489925E-01
  3.541557E-01
  3.531745E-01
  3.530013E-01
  3.477358E-01
  3.461829E-01
  3.423090E-01
  3.434570E-01
  3.425293E-01
  3.412209E-01
  3.452417E-01
  3.493647E-01
  3.500126E-01
  3.487992E-01
  3.450893E-01
  3.426993E-01
  3.410203E-01
  3.420505E-01
  3.430936E-01
  3.449816E-01
  3.451014E-01
  3.452689E-01
  3.440247E-01
  3.438943E-01
  3.434288E-01
  3.445552E-01
  3.449939E-01
  3.460699E-01
  3.454456E-01
  3.449737E-01
  3.430459E-01
  3.419543E-01
  3.401013E-01
  3.395380E-01
  3.384941E-01
  3.389258E-01
  3.389036E-01
  3.400592E-01
  3.401427E-01
  3.408139E-01
  3.402792E-01
  3.407868E-01
  3.407383E-01
  3.419577E-01
  3.421327E-01
  3.426879E-01
  3.415510E-01
  3.407732E-01
  3.387654E-01
  3.376645E-01
  3.357902E-01
  3.352566E-01
  3.345045E-01
  3.357086E-01
  3.371535E-01
  3.405361E-01
  3.433598E-01
  3.464955E-01
  3.470178E-01
  3.464829E-01
  3.437320E-01
  3.422532E-01
  3.416869E-01
  3.445026E-01
  3.479978E-01
  3.521492E-01
  3.530262E-01
  3.516983E-01
  3.469614E-01
  3.424491E-01
  3.380181E-01
  3.367787E-01
  3.373411E-01
  3.423937E-01
  3.470192E-01
  3.490712E-01
  3.505590E-01
  3.472548E-01
  3.439707E-01
  3.391214E-01
  3.380229E-01
  3.376042E-01
  3.408151E-01
  3.427382E-01
  3.456969E-01
  3.453354E-01
  3.454542E-01
  3.432404E-01
  3.433693E-01
  3.428277E-01
  3.450821E-01
  3.456378E-01
  3.471874E-01
  3.456673E-01
  3.451075E-01
  3.425980E-01
  3.423170E-01
  3.406873E-01
  3.410931E-01
  3.397619E-01
  3.404393E-01
  3.397833E-01
  3.414868E-01
  3.416157E-01
  3.432117E-01
  3.421849E-01
  3.421821E-01
  3.400794E-01
  3.401837E-01
  3.392820E-01
  3.408406E-01
  3.406047E-01
  3.415046E-01
  3.396621E-01
  3.391088E-01
  3.370325E-01
  3.377094E-01
  3.377224E-01
  3.403847E-01
  3.415720E-01
  3.443791E-01
  3.446385E-01
  3.455778E-01
  3.435453E-01
  3.428816E-01
  3.411459E-01
  3.429436E-01
  3.446961E-01
  3.489194E-01
  3.502291E-01
  3.510395E-01
  3.476973E-01
  3.450413E-01
  3.408223E-01
  3.396132E-01
  3.382260E-01
  3.404037E-01
  3.383805E-01
  3.446641E-01
  3.459216E-01
  3.488937E-01
  3.448002E-01
  3.432892E-01
  3.379252E-01
  3.384501E-01
  3.369507E-01
  3.410497E-01
  3.413485E-01
  3.451234E-01
  3.435247E-01
  3.451571E-01
  3.423784E-01
  3.442947E-01
  3.428951E-01
  3.462869E-01
  3.454477E-01
  3.480717E-01
  3.453892E-01
  3.459390E-01
  3.417824E-01
  3.417915E-01
  3.380171E-01
  3.389661E-01
  3.364157E-01
  3.385823E-01
  3.370470E-01
  3.398694E-01
  3.385443E-01
  3.412356E-01
  3.396250E-01
  3.421494E-01
  3.405761E-01
  3.431865E-01
  3.414519E-01
  3.434691E-01
  3.407509E-01
  3.416739E-01
  3.381881E-01
  3.391005E-01
  3.366449E-01
  3.393794E-01
  3.388917E-01
  3.429605E-01
  3.426233E-01
  3.457530E-01
  3.437547E-01
  3.450132E-01
  3.413964E-01
  3.417822E-01
  3.386042E-01
  3.408437E-01
  3.404054E-01
  3.450456E-01
  3.452500E-01
  3.481934E-01
  3.448854E-01
  3.440750E-01
  3.384229E-01
  3.375136E-01
  3.341717E-01
  3.372613E-01
  3.412710E-01
  3.459790E-01
  3.451509E-01
  3.477546E-01
  3.430536E-01
  3.420140E-01
  3.360815E-01
  3.367905E-01
  3.347200E-01
  3.394676E-01
  3.398585E-01
  3.446974E-01
  3.430312E-01
  3.451078E-01
  3.416226E-01
  3.438358E-01
  3.422671E-01
  3.468272E-01
  3.463250E-01
  3.498055E-01
  3.464594E-01
  3.468958E-01
  3.418185E-01
  3.422280E-01
  3.383337E-01
  3.401267E-01
  3.373600E-01
  3.401117E-01
  3.385024E-01
  3.426364E-01
  3.419972E-01
  3.459141E-01
  3.435287E-01
  3.449884E-01
  3.408677E-01
  3.423475E-01
  3.399016E-01
  3.434078E-01
  3.418518E-01
  3.445477E-01
  3.412200E-01
  3.427059E-01
  3.398487E-01
  3.432246E-01
  3.423499E-01
  3.464168E-01
  3.444250E-01
  3.463700E-01
  3.424191E-01
  3.432765E-01
  3.392082E-01
  3.406803E-01
  3.379509E-01
  3.412883E-01
  3.403750E-01
  3.445924E-01
  3.429751E-01
  3.452995E-01
  3.416703E-01
  3.429076E-01
  3.393837E-01
  3.413962E-01
  3.389125E-01
  3.421811E-01
  3.383930E-01
  3.428704E-01
  3.424338E-01
  3.454486E-01
  3.421248E-01
  3.424463E-01
  3.381358E-01
  3.394869E-01
  3.375353E-01
  3.412468E-01
  3.405452E-01
  3.440137E-01
  3.419206E-01
  3.439437E-01
  3.414050E-01
  3.443477E-01
  3.435630E-01
  3.479757E-01
  3.472655E-01
  3.500443E-01
  3.464521E-01
  3.462690E-01
  3.407921E-01
  3.402576E-01
  3.359476E-01
  3.374437E-01
  3.353986E-01
  3.388010E-01
  3.379946E-01
  3.419585E-01
  3.410691E-01
  3.444913E-01
  3.427651E-01
  3.454478E-01
  3.433753E-01
  3.460796E-01
  3.439950E-01
  3.461864E-01
  3.429828E-01
  3.438959E-01
  3.400430E-01
  3.415160E-01
  3.394821E-01
  3.432550E-01
  3.428447E-01
  3.467089E-01
  3.447379E-01
  3.463139E-01
  3.424669E-01
  3.431770E-01
  3.394024E-01
  3.406307E-01
  3.376238E-01
  3.398432E-01
  3.380434E-01
  3.413990E-01
  3.401831E-01
  3.433054E-01
  3.410600E-01
  3.427482E-01
  3.391800E-01
  3.401457E-01
  3.369118E-01
  3.393666E-01
  3.411881E-01
  3.431689E-01
  3.423136E-01
  3.444853E-01
  3.425025E-01
  3.428376E-01
  3.395942E-01
  3.401700E-01
  3.386759E-01
  3.415266E-01
  3.415590E-01
  3.443846E-01
  3.429297E-01
  3.439132E-01
  3.416445E-01
  3.435954E-01
  3.436703E-01
  3.478839E-01
  3.484274E-01
  3.506183E-01
  3.473918E-01
  3.459814E-01
  3.410741E-01
  3.403026E-01
  3.376429E-01
  3.393889E-01
  3.386350E-01
  3.415113E-01
  3.414644E-01
  3.449777E-01
  3.452531E-01
  3.482215E-01
  3.467589E-01
  3.474377E-01
  3.443845E-01
  3.450642E-01
  3.433812E-01
  3.455338E-01
  3.441751E-01
  3.452888E-01
  3.425164E-01
  3.431847E-01
  3.415616E-01
  3.442676E-01
  3.441197E-01
  3.466698E-01
  3.447968E-01
  3.452497E-01
  3.421279E-01
  3.425175E-01
  3.400986E-01
  3.413622E-01
  3.398152E-01
  3.419328E-01
  3.410068E-01
  3.431125E-01
  3.414196E-01
  3.425544E-01
  3.405025E-01
  3.422063E-01
  3.411123E-01
  3.432512E-01
  3.416908E-01
  3.430037E-01
  3.373646E-01
  3.393405E-01
  3.400635E-01
  3.427884E-01
  3.430367E-01
  3.444831E-01
  3.434185E-01
  3.441876E-01
  3.432455E-01
  3.445283E-01
  3.438377E-01
  3.446941E-01
  3.430757E-01
  3.432647E-01
  3.420397E-01
  3.438307E-01
  3.447177E-01
  3.479290E-01
  3.484940E-01
  3.494743E-01
  3.466942E-01
  3.446523E-01
  3.404421E-01
  3.389692E-01
  3.369815E-01
  3.384004E-01
  3.389018E-01
  3.416333E-01
  3.421077E-01
  3.439894E-01
  3.434976E-01
  3.448190E-01
  3.442848E-01
  3.459500E-01
  3.458493E-01
  3.476060E-01
  3.468078E-01
  3.469809E-01
  3.442115E-01
  3.429503E-01
  3.401009E-01
  3.402256E-01
  3.396280E-01
  3.418229E-01
  3.422368E-01
  3.441512E-01
  3.434406E-01
  3.442250E-01
  3.429354E-01
  3.436341E-01
  3.423359E-01
  3.428354E-01
  3.413209E-01
  3.419380E-01
  3.409951E-01
  3.423544E-01
  3.418878E-01
  3.432202E-01
  3.422567E-01
  3.427942E-01
  3.409058E-01
  3.405895E-01
  3.382730E-01
  3.383386E-01
  3.393389E-01
  3.397638E-01
  3.402362E-01
  3.425551E-01
  3.436052E-01
  3.449638E-01
  3.442936E-01
  3.443854E-01
  3.436203E-01
  3.445353E-01
  3.445582E-01
  3.453335E-01
  3.441749E-01
  3.435626E-01
  3.420263E-01
  3.427074E-01
  3.436862E-01
  3.466525E-01
  3.480569E-01
  3.489505E-01
  3.466836E-01
  3.443160E-01
  3.409643E-01
  3.400623E-01
  3.397565E-01
  3.418511E-01
  3.432055E-01
  3.452860E-01
  3.455473E-01
  3.464659E-01
  3.460654E-01
  3.466674E-01
  3.458419E-01
  3.458217E-01
  3.445872E-01
  3.447545E-01
  3.441205E-01
  3.446247E-01
  3.435511E-01
  3.430562E-01
  3.412636E-01
  3.410481E-01
  3.405389E-01
  3.418361E-01
  3.421473E-01
  3.432438E-01
  3.427950E-01
  3.433572E-01
  3.429328E-01
  3.437414E-01
  3.432888E-01
  3.437859E-01
  3.432311E-01
  3.441901E-01
  3.443408E-01
  3.454722E-01
  3.448362E-01
  3.446951E-01
  3.432666E-01
  3.433195E-01
  3.426111E-01
  3.429449E-01
  3.416133E-01
  3.409481E-01
  3.356057E-01
  3.370770E-01
  3.384191E-01
  3.415784E-01
  3.433545E-01
  3.456635E-01
  3.457706E-01
  3.464134E-01
  3.454927E-01
  3.458148E-01
  3.448233E-01
  3.448020E-01
  3.431481E-01
  3.426859E-01
  3.415066E-01
  3.425994E-01
  3.434585E-01
  3.459990E-01
  3.467696E-01
  3.474891E-01
  3.454026E-01
  3.435531E-01
  3.404220E-01
  3.395264E-01
  3.389607E-01
  3.411022E-01
  3.426597E-01
  3.450361E-01
  3.449223E-01
  3.448015E-01
  3.428135E-01
  3.423662E-01
  3.415775E-01
  3.430518E-01
  3.438418E-01
  3.456645E-01
  3.452256E-01
  3.447171E-01
  3.419732E-01
  3.403516E-01
  3.382020E-01
  3.384213E-01
  3.383512E-01
  3.399646E-01
  3.402987E-01
  3.417009E-01
  3.418120E-01
  3.432965E-01
  3.435521E-01
  3.447364E-01
  3.440164E-01
  3.439627E-01
  3.425430E-01
  3.428673E-01
  3.427375E-01
  3.444756E-01
  3.450187E-01
  3.462958E-01
  3.454201E-01
  3.448548E-01
  3.422658E-01
  3.405312E-01
  3.376507E-01
  3.366832E-01
  3.385983E-01
  3.391886E-01
  3.393850E-01
  3.419897E-01
  3.429923E-01
  3.448156E-01
  3.440130E-01
  3.442021E-01
  3.428531E-01
  3.435873E-01
  3.430646E-01
  3.439618E-01
  3.426427E-01
  3.424000E-01
  3.406790E-01
  3.414607E-01
  3.419330E-01
  3.448866E-01
  3.460548E-01
  3.475304E-01
  3.456393E-01
  3.441655E-01
  3.411179E-01
  3.408447E-01
  3.406307E-01
  3.432656E-01
  3.445849E-01
  3.468025E-01
  3.462479E-01
  3.463706E-01
  3.445197E-01
  3.443412E-01
  3.427464E-01
  3.428937E-01
  3.415984E-01
  3.421225E-01
  3.412361E-01
  3.419391E-01
  3.408212E-01
  3.410686E-01
  3.397471E-01
  3.403700E-01
  3.398916E-01
  3.413254E-01
  3.411729E-01
  3.424473E-01
  3.420249E-01
  3.432428E-01
  3.428477E-01
  3.437721E-01
  3.426322E-01
  3.428637E-01
  3.418550E-01
  3.432857E-01
  3.438889E-01
  3.462136E-01
  3.462869E-01
  3.470115E-01
  3.454394E-01
  3.452847E-01
  3.435660E-01
  3.433536E-01
  3.412426E-01
  3.405446E-01
  3.364527E-01
  3.381895E-01
  3.387426E-01
  3.415528E-01
  3.423491E-01
  3.445050E-01
  3.439468E-01
  3.446191E-01
  3.430364E-01
  3.433583E-01
  3.418503E-01
  3.422396E-01
  3.406527E-01
  3.410974E-01
  3.401281E-01
  3.418392E-01
  3.423764E-01
  3.451440E-01
  3.456550E-01
  3.471150E-01
  3.453290E-01
  3.443317E-01
  3.409749E-01
  3.400356E-01
  3.384785E-01
  3.402910E-01
  3.411063E-01
  3.436828E-01
  3.432584E-01
  3.434425E-01
  3.409809E-01
  3.406577E-01
  3.393801E-01
  3.410714E-01
  3.414133E-01
  3.434038E-01
  3.425479E-01
  3.425408E-01
  3.400173E-01
  3.395428E-01
  3.378928E-01
  3.390056E-01
  3.388015E-01
  3.406575E-01
  3.404845E-01
  3.420698E-01
  3.416868E-01
  3.431561E-01
  3.424624E-01
  3.431943E-01
  3.414869E-01
  3.414748E-01
  3.398795E-01
  3.409824E-01
  3.410983E-01
  3.437376E-01
  3.444606E-01
  3.464456E-01
  3.453982E-01
  3.451062E-01
  3.420575E-01
  3.406747E-01
  3.377555E-01
  3.375526E-01
  3.411800E-01
  3.416871E-01
  3.410547E-01
  3.423826E-01
  3.422306E-01
  3.432363E-01
  3.420784E-01
  3.420637E-01
  3.405460E-01
  3.409661E-01
  3.402244E-01
  3.411213E-01
  3.402945E-01
  3.408615E-01
  3.400900E-01
  3.415178E-01
  3.422577E-01
  3.451226E-01
  3.462708E-01
  3.479642E-01
  3.465702E-01
  3.453973E-01
  3.421316E-01
  3.408888E-01
  3.392722E-01
  3.404413E-01
  3.408216E-01
  3.427784E-01
  3.426954E-01
  3.435938E-01
  3.426049E-01
  3.430637E-01
  3.419081E-01
  3.421629E-01
  3.407552E-01
  3.409673E-01
  3.399210E-01
  3.407621E-01
  3.402533E-01
  3.412889E-01
  3.407143E-01
  3.417151E-01
  3.413121E-01
  3.425608E-01
  3.421720E-01
  3.430452E-01
  3.420201E-01
  3.422773E-01
  3.408326E-01
  3.408897E-01
  3.395282E-01
  3.401283E-01
  3.398888E-01
  3.419117E-01
  3.427040E-01
  3.446955E-01
  3.442608E-01
  3.444920E-01
  3.427433E-01
  3.427133E-01
  3.416102E-01
  3.424268E-01
  3.417212E-01
  3.423233E-01
  3.405830E-01
  3.417031E-01
  3.415776E-01
  3.422192E-01
  3.420719E-01
  3.428849E-01
  3.426436E-01
  3.429155E-01
  3.418956E-01
  3.415095E-01
  3.401935E-01
  3.399386E-01
  3.392020E-01
  3.399652E-01
  3.405394E-01
  3.425443E-01
  3.438622E-01
  3.459027E-01
  3.465921E-01
  3.474716E-01
  3.464770E-01
  3.452355E-01
  3.421573E-01
  3.397160E-01
  3.370739E-01
  3.366707E-01
  3.367479E-01
  3.383992E-01
  3.389715E-01
  3.397403E-01
  3.391282E-01
  3.395425E-01
  3.397245E-01
  3.414208E-01
  3.423124E-01
  3.434911E-01
  3.428125E-01
  3.422331E-01
  3.405397E-01
  3.400966E-01
  3.394414E-01
  3.402960E-01
  3.405993E-01
  3.417754E-01
  3.417802E-01
  3.422580E-01
  3.414298E-01
  3.411850E-01
  3.399483E-01
  3.397460E-01
  3.390362E-01
  3.396960E-01
  3.398764E-01
  3.411121E-01
  3.413634E-01
  3.422213E-01
  3.418235E-01
  3.419109E-01
  3.407073E-01
  3.401350E-01
  3.387700E-01
  3.388107E-01
  3.387064E-01
  3.400427E-01
  3.463959E-01
  3.457608E-01
  3.445018E-01
  3.430985E-01
  3.422190E-01
  3.415996E-01
  3.412534E-01
  3.407605E-01
  3.403682E-01
  3.399172E-01
  3.397208E-01
  3.395581E-01
  3.397284E-01
  3.400910E-01
  3.409944E-01
  3.421948E-01
  3.438015E-01
  3.453028E-01
  3.466130E-01
  3.471209E-01
  3.467724E-01
  3.452281E-01
  3.430087E-01
  3.404774E-01
  3.385803E-01
  3.375178E-01
  3.375560E-01
  3.381337E-01
  3.391198E-01
  3.400666E-01
  3.411937E-01
  3.421989E-01
  3.430879E-01
  3.432826E-01
  3.429036E-01
  3.419604E-01
  3.412130E-01
  3.408094E-01
  3.410362E-01
  3.414021E-01
  3.419184E-01
  3.422944E-01
  3.428350E-01
  3.432122E-01
  3.433685E-01
  3.427188E-01
  3.414626E-01
  3.397201E-01
  3.383575E-01
  3.376903E-01
  3.382337E-01
  3.396308E-01
  3.416522E-01
  3.433218E-01
  3.441594E-01
  3.435160E-01
  3.418153E-01
  3.395300E-01
  3.378656E-01
  3.373568E-01
  3.385287E-01
  3.407962E-01
  3.435616E-01
  3.455729E-01
  3.457871E-01
  3.453973E-01
  3.447386E-01
  3.426199E-01
  3.419585E-01
  3.410665E-01
  3.417423E-01
  3.414326E-01
  3.417482E-01
  3.405428E-01
  3.400711E-01
  3.387426E-01
  3.390560E-01
  3.392499E-01
  3.412195E-01
  3.424149E-01
  3.442709E-01
  3.444551E-01
  3.451657E-01
  3.446435E-01
  3.449391E-01
  3.436387E-01
  3.424563E-01
  3.395289E-01
  3.376469E-01
  3.356353E-01
  3.358823E-01
  3.360506E-01
  3.374829E-01
  3.377103E-01
  3.388708E-01
  3.393920E-01
  3.415529E-01
  3.429837E-01
  3.449592E-01
  3.447486E-01
  3.442888E-01
  3.420491E-01
  3.408681E-01
  3.393502E-01
  3.397689E-01
  3.399468E-01
  3.415122E-01
  3.419117E-01
  3.427092E-01
  3.416028E-01
  3.407512E-01
  3.386138E-01
  3.379095E-01
  3.371857E-01
  3.386284E-01
  3.398556E-01
  3.421317E-01
  3.426290E-01
  3.430031E-01
  3.413924E-01
  3.403830E-01
  3.384476E-01
  3.379104E-01
  3.369467E-01
  3.378389E-01
  3.387850E-01
  3.416457E-01
  3.436386E-01
  3.501664E-01
  3.478344E-01
  3.464904E-01
  3.428123E-01
  3.418706E-01
  3.395753E-01
  3.400316E-01
  3.386578E-01
  3.395332E-01
  3.383016E-01
  3.392755E-01
  3.382670E-01
  3.396650E-01
  3.392374E-01
  3.411692E-01
  3.409448E-01
  3.426487E-01
  3.419297E-01
  3.432293E-01
  3.423800E-01
  3.436395E-01
  3.424496E-01
  3.428977E-01
  3.407328E-01
  3.406289E-01
  3.387276E-01
  3.395291E-01
  3.387014E-01
  3.403801E-01
  3.402439E-01
  3.426171E-01
  3.430730E-01
  3.454601E-01
  3.448563E-01
  3.452794E-01
  3.426896E-01
  3.421428E-01
  3.399884E-01
  3.407416E-01
  3.399347E-01
  3.416050E-01
  3.413490E-01
  3.433673E-01
  3.430431E-01
  3.441534E-01
  3.419728E-01
  3.409586E-01
  3.375571E-01
  3.370249E-01
  3.357892E-01
  3.382101E-01
  3.395277E-01
  3.431345E-01
  3.437981E-01
  3.452327E-01
  3.430791E-01
  3.421824E-01
  3.390837E-01
  3.389370E-01
  3.380635E-01
  3.409044E-01
  3.427961E-01
  3.471339E-01
  3.484391E-01
  3.467879E-01
  3.449014E-01
  3.450705E-01
  3.415962E-01
  3.416072E-01
  3.391907E-01
  3.405365E-01
  3.389380E-01
  3.403140E-01
  3.382557E-01
  3.392342E-01
  3.373252E-01
  3.391374E-01
  3.384485E-01
  3.412101E-01
  3.405103E-01
  3.421893E-01
  3.399933E-01
  3.408468E-01
  3.391179E-01
  3.412668E-01
  3.404863E-01
  3.423554E-01
  3.402388E-01
  3.408368E-01
  3.385416E-01
  3.400691E-01
  3.389569E-01
  3.410402E-01
  3.397757E-01
  3.417175E-01
  3.409899E-01
  3.440179E-01
  3.439712E-01
  3.463942E-01
  3.443603E-01
  3.443107E-01
  3.405584E-01
  3.402663E-01
  3.377639E-01
  3.395537E-01
  3.391389E-01
  3.422668E-01
  3.418905E-01
  3.436998E-01
  3.411096E-01
  3.407992E-01
  3.372351E-01
  3.375574E-01
  3.360154E-01
  3.388222E-01
  3.391355E-01
  3.424261E-01
  3.417760E-01
  3.434609E-01
  3.415781E-01
  3.429697E-01
  3.414570E-01
  3.431544E-01
  3.415312E-01
  3.430749E-01
  3.418933E-01
  3.445460E-01
  3.443267E-01
  3.481548E-01
  3.450721E-01
  3.454200E-01
  3.415934E-01
  3.419142E-01
  3.385705E-01
  3.395054E-01
  3.367775E-01
  3.383248E-01
  3.362862E-01
  3.385840E-01
  3.372667E-01
  3.401044E-01
  3.389438E-01
  3.414229E-01
  3.393828E-01
  3.408018E-01
  3.380696E-01
  3.396114E-01
  3.378669E-01
  3.407506E-01
  3.399815E-01
  3.430353E-01
  3.416952E-01
  3.439986E-01
  3.421908E-01
  3.443667E-01
  3.425361E-01
  3.446905E-01
  3.430216E-01
  3.456902E-01
  3.445822E-01
  3.471541E-01
  3.447695E-01
  3.452617E-01
  3.411256E-01
  3.412202E-01
  3.382373E-01
  3.402154E-01
  3.389508E-01
  3.420573E-01
  3.414274E-01
  3.448029E-01
  3.437499E-01
  3.456701E-01
  3.422641E-01
  3.418964E-01
  3.375065E-01
  3.379592E-01
  3.358387E-01
  3.389181E-01
  3.387740E-01
  3.427011E-01
  3.423030E-01
  3.453860E-01
  3.440304E-01
  3.463837E-01
  3.445662E-01
  3.466644E-01
  3.447594E-01
  3.470115E-01
  3.454952E-01
  3.480961E-01
  3.464389E-01
  3.428891E-01
  3.415576E-01
  3.434280E-01
  3.411343E-01
  3.422290E-01
  3.397764E-01
  3.411224E-01
  3.389222E-01
  3.402684E-01
  3.379435E-01
  3.393523E-01
  3.375425E-01
  3.398724E-01
  3.389878E-01
  3.416706E-01
  3.401300E-01
  3.413504E-01
  3.383899E-01
  3.392302E-01
  3.373413E-01
  3.400500E-01
  3.396111E-01
  3.425146E-01
  3.411486E-01
  3.430108E-01
  3.413258E-01
  3.435598E-01
  3.421840E-01
  3.440754E-01
  3.419008E-01
  3.433245E-01
  3.415497E-01
  3.439277E-01
  3.427619E-01
  3.447319E-01
  3.422124E-01
  3.426218E-01
  3.392260E-01
  3.398901E-01
  3.378702E-01
  3.405363E-01
  3.404207E-01
  3.441442E-01
  3.436413E-01
  3.455965E-01
  3.426472E-01
  3.426221E-01
  3.390675E-01
  3.398695E-01