# vtk DataFile Version 2.0
title
ASCII
DATASET STRUCTURED_GRID
DIMENSIONS   64   64    1
POINTS   4096  float
  0.000000E+00  0.000000E+00  0.000000E+00
  0.000000E+00  3.906250E-01  0.000000E+00
  0.000000E+00  7.812500E-01  0.000000E+00
  0.000000E+00  1.171875E+00  0.000000E+00
  0.000000E+00  1.562500E+00  0.000000E+00
  0.000000E+00  1.953125E+00  0.000000E+00
  0.000000E+00  2.343750E+00  0.000000E+00
  0.000000E+00  2.734375E+00  0.000000E+00
  0.000000E+00  3.125000E+00  0.000000E+00
  0.000000E+00  3.515625E+00  0.000000E+00
  0.000000E+00  3.906250E+00  0.000000E+00
  0.000000E+00  4.296875E+00  0.000000E+00
  0.000000E+00  4.687500E+00  0.000000E+00
  0.000000E+00  5.078125E+00  0.000000E+00
  0.000000E+00  5.468750E+00  0.000000E+00
  0.000000E+00  5.859375E+00  0.000000E+00
  0.000000E+00  6.250000E+00  0.000000E+00
  0.000000E+00  6.640625E+00  0.000000E+00
  0.000000E+00  7.031250E+00  0.000000E+00
  0.000000E+00  7.421875E+00  0.000000E+00
  0.000000E+00  7.812500E+00  0.000000E+00
  0.000000E+00  8.203125E+00  0.000000E+00
  0.000000E+00  8.593750E+00  0.000000E+00
  0.000000E+00  8.984375E+00  0.000000E+00
  0.000000E+00  9.375000E+00  0.000000E+00
  0.000000E+00  9.765625E+00  0.000000E+00
  0.000000E+00  1.015625E+01  0.000000E+00
  0.000000E+00  1.054688E+01  0.000000E+00
  0.000000E+00  1.093750E+01  0.000000E+00
  0.000000E+00  1.132812E+01  0.000000E+00
  0.000000E+00  1.171875E+01  0.000000E+00
  0.000000E+00  1.210938E+01  0.000000E+00
  0.000000E+00  1.250000E+01  0.000000E+00
  0.000000E+00  1.289062E+01  0.000000E+00
  0.000000E+00  1.328125E+01  0.000000E+00
  0.000000E+00  1.367188E+01  0.000000E+00
  0.000000E+00  1.406250E+01  0.000000E+00
  0.000000E+00  1.445312E+01  0.000000E+00
  0.000000E+00  1.484375E+01  0.000000E+00
  0.000000E+00  1.523438E+01  0.000000E+00
  0.000000E+00  1.562500E+01  0.000000E+00
  0.000000E+00  1.601562E+01  0.000000E+00
  0.000000E+00  1.640625E+01  0.000000E+00
  0.000000E+00  1.679688E+01  0.000000E+00
  0.000000E+00  1.718750E+01  0.000000E+00
  0.000000E+00  1.757812E+01  0.000000E+00
  0.000000E+00  1.796875E+01  0.000000E+00
  0.000000E+00  1.835938E+01  0.000000E+00
  0.000000E+00  1.875000E+01  0.000000E+00
  0.000000E+00  1.914062E+01  0.000000E+00
  0.000000E+00  1.953125E+01  0.000000E+00
  0.000000E+00  1.992188E+01  0.000000E+00
  0.000000E+00  2.031250E+01  0.000000E+00
  0.000000E+00  2.070312E+01  0.000000E+00
  0.000000E+00  2.109375E+01  0.000000E+00
  0.000000E+00  2.148438E+01  0.000000E+00
  0.000000E+00  2.187500E+01  0.000000E+00
  0.000000E+00  2.226562E+01  0.000000E+00
  0.000000E+00  2.265625E+01  0.000000E+00
  0.000000E+00  2.304688E+01  0.000000E+00
  0.000000E+00  2.343750E+01  0.000000E+00
  0.000000E+00  2.382812E+01  0.000000E+00
  0.000000E+00  2.421875E+01  0.000000E+00
  0.000000E+00  2.460938E+01  0.000000E+00
  3.906250E-01  0.000000E+00  0.000000E+00
  3.906250E-01  3.906250E-01  0.000000E+00
  3.906250E-01  7.812500E-01  0.000000E+00
  3.906250E-01  1.171875E+00  0.000000E+00
  3.906250E-01  1.562500E+00  0.000000E+00
  3.906250E-01  1.953125E+00  0.000000E+00
  3.906250E-01  2.343750E+00  0.000000E+00
  3.906250E-01  2.734375E+00  0.000000E+00
  3.906250E-01  3.125000E+00  0.000000E+00
  3.906250E-01  3.515625E+00  0.000000E+00
  3.906250E-01  3.906250E+00  0.000000E+00
  3.906250E-01  4.296875E+00  0.000000E+00
  3.906250E-01  4.687500E+00  0.000000E+00
  3.906250E-01  5.078125E+00  0.000000E+00
  3.906250E-01  5.468750E+00  0.000000E+00
  3.906250E-01  5.859375E+00  0.000000E+00
  3.906250E-01  6.250000E+00  0.000000E+00
  3.906250E-01  6.640625E+00  0.000000E+00
  3.906250E-01  7.031250E+00  0.000000E+00
  3.906250E-01  7.421875E+00  0.000000E+00
  3.906250E-01  7.812500E+00  0.000000E+00
  3.906250E-01  8.203125E+00  0.000000E+00
  3.906250E-01  8.593750E+00  0.000000E+00
  3.906250E-01  8.984375E+00  0.000000E+00
  3.906250E-01  9.375000E+00  0.000000E+00
  3.906250E-01  9.765625E+00  0.000000E+00
  3.906250E-01  1.015625E+01  0.000000E+00
  3.906250E-01  1.054688E+01  0.000000E+00
  3.906250E-01  1.093750E+01  0.000000E+00
  3.906250E-01  1.132812E+01  0.000000E+00
  3.906250E-01  1.171875E+01  0.000000E+00
  3.906250E-01  1.210938E+01  0.000000E+00
  3.906250E-01  1.250000E+01  0.000000E+00
  3.906250E-01  1.289062E+01  0.000000E+00
  3.906250E-01  1.328125E+01  0.000000E+00
  3.906250E-01  1.367188E+01  0.000000E+00
  3.906250E-01  1.406250E+01  0.000000E+00
  3.906250E-01  1.445312E+01  0.000000E+00
  3.906250E-01  1.484375E+01  0.000000E+00
  3.906250E-01  1.523438E+01  0.000000E+00
  3.906250E-01  1.562500E+01  0.000000E+00
  3.906250E-01  1.601562E+01  0.000000E+00
  3.906250E-01  1.640625E+01  0.000000E+00
  3.906250E-01  1.679688E+01  0.000000E+00
  3.906250E-01  1.718750E+01  0.000000E+00
  3.906250E-01  1.757812E+01  0.000000E+00
  3.906250E-01  1.796875E+01  0.000000E+00
  3.906250E-01  1.835938E+01  0.000000E+00
  3.906250E-01  1.875000E+01  0.000000E+00
  3.906250E-01  1.914062E+01  0.000000E+00
  3.906250E-01  1.953125E+01  0.000000E+00
  3.906250E-01  1.992188E+01  0.000000E+00
  3.906250E-01  2.031250E+01  0.000000E+00
  3.906250E-01  2.070312E+01  0.000000E+00
  3.906250E-01  2.109375E+01  0.000000E+00
  3.906250E-01  2.148438E+01  0.000000E+00
  3.906250E-01  2.187500E+01  0.000000E+00
  3.906250E-01  2.226562E+01  0.000000E+00
  3.906250E-01  2.265625E+01  0.000000E+00
  3.906250E-01  2.304688E+01  0.000000E+00
  3.906250E-01  2.343750E+01  0.000000E+00
  3.906250E-01  2.382812E+01  0.000000E+00
  3.906250E-01  2.421875E+01  0.000000E+00
  3.906250E-01  2.460938E+01  0.000000E+00
  7.812500E-01  0.000000E+00  0.000000E+00
  7.812500E-01  3.906250E-01  0.000000E+00
  7.812500E-01  7.812500E-01  0.000000E+00
  7.812500E-01  1.171875E+00  0.000000E+00
  7.812500E-01  1.562500E+00  0.000000E+00
  7.812500E-01  1.953125E+00  0.000000E+00
  7.812500E-01  2.343750E+00  0.000000E+00
  7.812500E-01  2.734375E+00  0.000000E+00
  7.812500E-01  3.125000E+00  0.000000E+00
  7.812500E-01  3.515625E+00  0.000000E+00
  7.812500E-01  3.906250E+00  0.000000E+00
  7.812500E-01  4.296875E+00  0.000000E+00
  7.812500E-01  4.687500E+00  0.000000E+00
  7.812500E-01  5.078125E+00  0.000000E+00
  7.812500E-01  5.468750E+00  0.000000E+00
  7.812500E-01  5.859375E+00  0.000000E+00
  7.812500E-01  6.250000E+00  0.000000E+00
  7.812500E-01  6.640625E+00  0.000000E+00
  7.812500E-01  7.031250E+00  0.000000E+00
  7.812500E-01  7.421875E+00  0.000000E+00
  7.812500E-01  7.812500E+00  0.000000E+00
  7.812500E-01  8.203125E+00  0.000000E+00
  7.812500E-01  8.593750E+00  0.000000E+00
  7.812500E-01  8.984375E+00  0.000000E+00
  7.812500E-01  9.375000E+00  0.000000E+00
  7.812500E-01  9.765625E+00  0.000000E+00
  7.812500E-01  1.015625E+01  0.000000E+00
  7.812500E-01  1.054688E+01  0.000000E+00
  7.812500E-01  1.093750E+01  0.000000E+00
  7.812500E-01  1.132812E+01  0.000000E+00
  7.812500E-01  1.171875E+01  0.000000E+00
  7.812500E-01  1.210938E+01  0.000000E+00
  7.812500E-01  1.250000E+01  0.000000E+00
  7.812500E-01  1.289062E+01  0.000000E+00
  7.812500E-01  1.328125E+01  0.000000E+00
  7.812500E-01  1.367188E+01  0.000000E+00
  7.812500E-01  1.406250E+01  0.000000E+00
  7.812500E-01  1.445312E+01  0.000000E+00
  7.812500E-01  1.484375E+01  0.000000E+00
  7.812500E-01  1.523438E+01  0.000000E+00
  7.812500E-01  1.562500E+01  0.000000E+00
  7.812500E-01  1.601562E+01  0.000000E+00
  7.812500E-01  1.640625E+01  0.000000E+00
  7.812500E-01  1.679688E+01  0.000000E+00
  7.812500E-01  1.718750E+01  0.000000E+00
  7.812500E-01  1.757812E+01  0.000000E+00
  7.812500E-01  1.796875E+01  0.000000E+00
  7.812500E-01  1.835938E+01  0.000000E+00
  7.812500E-01  1.875000E+01  0.000000E+00
  7.812500E-01  1.914062E+01  0.000000E+00
  7.812500E-01  1.953125E+01  0.000000E+00
  7.812500E-01  1.992188E+01  0.000000E+00
  7.812500E-01  2.031250E+01  0.000000E+00
  7.812500E-01  2.070312E+01  0.000000E+00
  7.812500E-01  2.109375E+01  0.000000E+00
  7.812500E-01  2.148438E+01  0.000000E+00
  7.812500E-01  2.187500E+01  0.000000E+00
  7.812500E-01  2.226562E+01  0.000000E+00
  7.812500E-01  2.265625E+01  0.000000E+00
  7.812500E-01  2.304688E+01  0.000000E+00
  7.812500E-01  2.343750E+01  0.000000E+00
  7.812500E-01  2.382812E+01  0.000000E+00
  7.812500E-01  2.421875E+01  0.000000E+00
  7.812500E-01  2.460938E+01  0.000000E+00
  1.171875E+00  0.000000E+00  0.000000E+00
  1.171875E+00  3.906250E-01  0.000000E+00
  1.171875E+00  7.812500E-01  0.000000E+00
  1.171875E+00  1.171875E+00  0.000000E+00
  1.171875E+00  1.562500E+00  0.000000E+00
  1.171875E+00  1.953125E+00  0.000000E+00
  1.171875E+00  2.343750E+00  0.000000E+00
  1.171875E+00  2.734375E+00  0.000000E+00
  1.171875E+00  3.125000E+00  0.000000E+00
  1.171875E+00  3.515625E+00  0.000000E+00
  1.171875E+00  3.906250E+00  0.000000E+00
  1.171875E+00  4.296875E+00  0.000000E+00
  1.171875E+00  4.687500E+00  0.000000E+00
  1.171875E+00  5.078125E+00  0.000000E+00
  1.171875E+00  5.468750E+00  0.000000E+00
  1.171875E+00  5.859375E+00  0.000000E+00
  1.171875E+00  6.250000E+00  0.000000E+00
  1.171875E+00  6.640625E+00  0.000000E+00
  1.171875E+00  7.031250E+00  0.000000E+00
  1.171875E+00  7.421875E+00  0.000000E+00
  1.171875E+00  7.812500E+00  0.000000E+00
  1.171875E+00  8.203125E+00  0.000000E+00
  1.171875E+00  8.593750E+00  0.000000E+00
  1.171875E+00  8.984375E+00  0.000000E+00
  1.171875E+00  9.375000E+00  0.000000E+00
  1.171875E+00  9.765625E+00  0.000000E+00
  1.171875E+00  1.015625E+01  0.000000E+00
  1.171875E+00  1.054688E+01  0.000000E+00
  1.171875E+00  1.093750E+01  0.000000E+00
  1.171875E+00  1.132812E+01  0.000000E+00
  1.171875E+00  1.171875E+01  0.000000E+00
  1.171875E+00  1.210938E+01  0.000000E+00
  1.171875E+00  1.250000E+01  0.000000E+00
  1.171875E+00  1.289062E+01  0.000000E+00
  1.171875E+00  1.328125E+01  0.000000E+00
  1.171875E+00  1.367188E+01  0.000000E+00
  1.171875E+00  1.406250E+01  0.000000E+00
  1.171875E+00  1.445312E+01  0.000000E+00
[...]
POINT_DATA   4096
SCALARS CON  float  1
LOOKUP_TABLE default
  3.676987E-01
  3.675645E-01
  3.721400E-01
  3.696903E-01
  3.707976E-01
  3.661152E-01
  3.677247E-01
  3.656330E-01
  3.695513E-01
  3.676053E-01
  3.696260E-01
  3.653991E-01
  3.664740E-01
  3.632126E-01
  3.664401E-01
  3.654034E-01
  3.699145E-01
  3.685475E-01
  3.712342E-01
  3.673296E-01
  3.679874E-01
  3.633519E-01
  3.643034E-01
  3.603303E-01
  3.618775E-01
  3.588253E-01
  3.621147E-01
  3.614403E-01
  3.665594E-01
  3.657172E-01
  3.685741E-01
  3.648700E-01
  3.664246E-01
  3.638033E-01
  3.674896E-01
  3.659083E-01
  3.684979E-01
  3.645326E-01
  3.652637E-01
  3.610448E-01
  3.626991E-01
  3.595533E-01
  3.617249E-01
  3.587028E-01
  3.612552E-01
  3.595567E-01
  3.645140E-01
  3.654865E-01
  3.717573E-01
  3.708855E-01
  3.722775E-01
  3.659317E-01
  3.647510E-01
  3.607440E-01
  3.655056E-01
  3.677083E-01
  3.753961E-01
  3.753378E-01
  3.771903E-01
  3.712084E-01
  3.699370E-01
  3.643068E-01
  3.655450E-01
  3.632647E-01
  3.690114E-01
  3.699355E-01
  3.745284E-01
  3.731553E-01
  3.729831E-01
  3.672782E-01
  3.660807E-01
  3.630771E-01
  3.659673E-01
  3.657553E-01
  3.690039E-01
  3.673234E-01
  3.686688E-01
  3.656669E-01
  3.667343E-01
  3.646973E-01
  3.676535E-01
  3.673443E-01
  3.704966E-01
  3.682833E-01
  3.685394E-01
  3.643625E-01
  3.646451E-01
  3.620250E-01
  3.639632E-01
  3.622181E-01
  3.644562E-01
  3.631983E-01
  3.663995E-01
  3.659418E-01
  3.689359E-01
  3.670324E-01
  3.681251E-01
  3.648923E-01
  3.656582E-01
  3.629014E-01
  3.644835E-01
  3.625407E-01
  3.646083E-01
  3.624661E-01
  3.635346E-01
  3.601113E-01
  3.604820E-01
  3.575572E-01
  3.595003E-01
  3.588346E-01
  3.633825E-01
  3.651212E-01
  3.707326E-01
  3.706428E-01
  3.716136E-01
  3.665339E-01
  3.657136E-01
  3.637794E-01
  3.691598E-01
  3.724403E-01
  3.785188E-01
  3.772207E-01
  3.765353E-01
  3.704579E-01
  3.689555E-01
  3.650611E-01
  3.664608E-01
  3.651633E-01
  3.633946E-01
  3.682487E-01
  3.734413E-01
  3.743279E-01
  3.727348E-01
  3.680034E-01
  3.650868E-01
  3.632637E-01
  3.647964E-01
  3.661515E-01
  3.683613E-01
  3.683670E-01
  3.685281E-01
  3.669798E-01
  3.667232E-01
  3.659635E-01
  3.671949E-01
  3.676963E-01
  3.690836E-01
  3.683976E-01
  3.679281E-01
  3.657724E-01
  3.648122E-01
  3.629959E-01
  3.626843E-01
  3.615465E-01
  3.619923E-01
  3.617465E-01
  3.629439E-01
  3.628318E-01
  3.634312E-01
  3.625486E-01
  3.630743E-01
  3.631203E-01
  3.648606E-01
  3.652345E-01
  3.658936E-01
  3.644083E-01
  3.635578E-01
  3.614496E-01
  3.605282E-01
  3.584413E-01
  3.576863E-01
  3.564125E-01
  3.574473E-01
  3.587798E-01
  3.626068E-01
  3.659690E-01
  3.699856E-01
  3.708969E-01
  3.703773E-01
  3.668720E-01
  3.647884E-01
  3.638469E-01
  3.671651E-01
  3.713494E-01
  3.762691E-01
  3.770845E-01
  3.753174E-01
  3.696820E-01
  3.646213E-01
  3.596625E-01
  3.583396E-01
  3.588816E-01
  3.641741E-01
  3.697684E-01
  3.728416E-01
  3.749145E-01
  3.710959E-01
  3.668353E-01
  3.610767E-01
  3.598587E-01
  3.597865E-01
  3.636702E-01
  3.660349E-01
  3.693471E-01
  3.689670E-01
  3.689039E-01
  3.661361E-01
  3.658396E-01
  3.650717E-01
  3.676399E-01
  3.685560E-01
  3.703919E-01
  3.687019E-01
  3.679768E-01
  3.653682E-01
  3.654043E-01
  3.640644E-01
  3.646755E-01
  3.630473E-01
  3.632914E-01
  3.621082E-01
  3.636827E-01
  3.638594E-01
  3.657495E-01
  3.648114E-01
  3.648563E-01
  3.625658E-01
  3.626220E-01
  3.616958E-01
  3.635634E-01
  3.636297E-01
  3.648208E-01
  3.627756E-01
  3.618221E-01
  3.592181E-01
  3.597888E-01
  3.598809E-01
  3.628315E-01
  3.641231E-01
  3.671904E-01
  3.677198E-01
  3.690258E-01
  3.668858E-01
  3.658278E-01
  3.635314E-01
  3.653384E-01
  3.675666E-01
  3.726085E-01
  3.742276E-01
  3.747787E-01
  3.705925E-01
  3.672624E-01
  3.625735E-01
  3.612520E-01
  3.596771E-01
  3.618836E-01
  3.603478E-01
  3.677431E-01
  3.695821E-01
  3.729041E-01
  3.679447E-01
  3.656879E-01
  3.594743E-01
  3.601639E-01
  3.588889E-01
  3.637929E-01
  3.643757E-01
  3.686277E-01
  3.668040E-01
  3.684062E-01
  3.650626E-01
  3.669073E-01
  3.652094E-01
  3.689108E-01
  3.680410E-01
  3.710334E-01
  3.682363E-01
  3.690644E-01
  3.647467E-01
  3.649992E-01
  3.610051E-01
  3.621035E-01
  3.592034E-01
  3.613898E-01
  3.594645E-01
  3.624081E-01
  3.608859E-01
  3.638359E-01
  3.620223E-01
  3.647313E-01
  3.629364E-01
  3.657890E-01
  3.639157E-01
  3.662676E-01
  3.635111E-01
  3.647764E-01
  3.610241E-01
  3.619129E-01
  3.590326E-01
  3.620249E-01
  3.616526E-01
  3.662791E-01
  3.658047E-01
  3.689496E-01
  3.664897E-01
  3.678292E-01
  3.639453E-01
  3.644420E-01
  3.609148E-01
  3.633281E-01
  3.628606E-01
  3.680585E-01
  3.683591E-01
  3.716015E-01
  3.678999E-01
  3.669414E-01
  3.606322E-01
  3.594804E-01
  3.556052E-01
  3.589176E-01
  3.637141E-01
  3.689531E-01
  3.683552E-01
  3.713272E-01
  3.659272E-01
  3.643185E-01
  3.575327E-01
  3.583334E-01
  3.563602E-01
  3.618758E-01
  3.625503E-01
  3.679571E-01
  3.661097E-01
  3.681719E-01
  3.640320E-01
  3.661438E-01
  3.643430E-01
  3.694645E-01
  3.691578E-01
  3.731092E-01
  3.694736E-01
  3.699169E-01
  3.644090E-01
  3.649939E-01
  3.609239E-01
  3.629847E-01
  3.598801E-01
  3.626330E-01
  3.606367E-01
  3.651457E-01
  3.647345E-01
  3.693516E-01
  3.668047E-01
  3.680599E-01
  3.630453E-01
  3.643334E-01
  3.617725E-01
  3.660738E-01
  3.649105E-01
  3.680817E-01
  3.642186E-01
  3.654048E-01
  3.621046E-01
  3.661254E-01
  3.658084E-01
  3.706352E-01
  3.682150E-01
  3.696762E-01
  3.648046E-01
  3.655853E-01
  3.612706E-01
  3.629834E-01
  3.599935E-01
  3.636214E-01
  3.627051E-01
  3.674056E-01
  3.656239E-01
  3.680506E-01
  3.640816E-01
  3.656634E-01
  3.621810E-01
  3.645895E-01
  3.617397E-01
  3.649490E-01
  3.613041E-01
  3.660166E-01
  3.655956E-01
  3.686242E-01
  3.647946E-01
  3.647613E-01
  3.600347E-01
  3.614624E-01
  3.595781E-01
  3.636858E-01
  3.631278E-01
  3.668306E-01
  3.645390E-01
  3.664671E-01
  3.636554E-01
  3.667590E-01
  3.661120E-01
  3.709506E-01
  3.703443E-01
  3.733197E-01
  3.695787E-01
  3.693774E-01
  3.635223E-01
  3.627504E-01
  3.580214E-01
  3.595176E-01
  3.574557E-01
  3.611942E-01
  3.605445E-01
  3.649412E-01
  3.642660E-01
  3.680017E-01
  3.660513E-01
  3.684800E-01
  3.659107E-01
  3.685960E-01
  3.665665E-01
  3.691807E-01
  3.660748E-01
  3.670691E-01
  3.628269E-01
  3.641271E-01
  3.619786E-01
  3.663099E-01
  3.664700E-01
  3.708905E-01
  3.685955E-01
  3.695640E-01
  3.648523E-01
  3.653160E-01
  3.614788E-01
  3.630113E-01
  3.599716E-01
  3.622349E-01
  3.601902E-01
  3.635732E-01
  3.622632E-01
  3.656751E-01
  3.636651E-01
  3.659117E-01
  3.625722E-01
  3.637323E-01
  3.601809E-01
  3.624891E-01
  3.641044E-01
  3.657732E-01
  3.650756E-01
  3.674279E-01
  3.655735E-01
  3.657053E-01
  3.622683E-01
  3.626247E-01
  3.611721E-01
  3.640954E-01
  3.643557E-01
  3.672407E-01
  3.657794E-01
  3.664827E-01
  3.640244E-01
  3.658956E-01
  3.663348E-01
  3.710220E-01
  3.720536E-01
  3.742810E-01
  3.708199E-01
  3.688711E-01
  3.635535E-01
  3.624485E-01
  3.597900E-01
  3.615969E-01
  3.610294E-01
  3.639170E-01
  3.639966E-01
  3.677371E-01
  3.685932E-01
  3.720081E-01
  3.706603E-01
  3.708163E-01
  3.671592E-01
  3.674523E-01
  3.660395E-01
  3.686820E-01
  3.677742E-01
  3.687577E-01
  3.655281E-01
  3.656174E-01
  3.639547E-01
  3.670707E-01
  3.676348E-01
  3.704213E-01
  3.682509E-01
  3.679841E-01
  3.644685E-01
  3.648080E-01
  3.626757E-01
  3.640240E-01
  3.624966E-01
  3.645279E-01
  3.637080E-01
  3.657678E-01
  3.639207E-01
  3.646832E-01
  3.625999E-01
  3.646488E-01
  3.643405E-01
  3.670311E-01
  3.655896E-01
  3.664166E-01
  3.600012E-01
  3.617579E-01
  3.627779E-01
  3.655825E-01
  3.662342E-01
  3.676776E-01
  3.668135E-01
  3.673530E-01
  3.664784E-01
  3.675588E-01
  3.670424E-01
  3.676928E-01
  3.660524E-01
  3.658212E-01
  3.646285E-01
  3.663990E-01
  3.678076E-01
  3.712124E-01
  3.720985E-01
  3.728334E-01
  3.699885E-01
  3.674948E-01
  3.631372E-01
  3.612328E-01
  3.592998E-01
  3.606954E-01
  3.616551E-01
  3.644771E-01
  3.651989E-01
  3.669055E-01
  3.665991E-01
  3.678228E-01
  3.674635E-01
  3.689137E-01
  3.689923E-01
  3.707660E-01
  3.703730E-01
  3.704547E-01
  3.676307E-01
  3.658087E-01
  3.627732E-01
  3.626116E-01
  3.622957E-01
  3.645696E-01
  3.653075E-01
  3.669836E-01
  3.661514E-01
  3.665205E-01
  3.654239E-01
  3.662816E-01
  3.655210E-01
  3.660317E-01
  3.646160E-01
  3.649323E-01
  3.640650E-01
  3.651901E-01
  3.647264E-01
  3.656748E-01
  3.647626E-01
  3.652632E-01
  3.638252E-01
  3.635607E-01
  3.613707E-01
  3.610430E-01
  3.616127E-01
  3.617044E-01
  3.626041E-01
  3.653194E-01
  3.670431E-01
  3.684779E-01
  3.679012E-01
  3.676311E-01
  3.668822E-01
  3.676655E-01
  3.680006E-01
  3.687288E-01
  3.676260E-01
  3.665162E-01
  3.647473E-01
  3.650976E-01
  3.664265E-01
  3.696686E-01
  3.715902E-01
  3.723283E-01
  3.698586E-01
  3.668369E-01
  3.633164E-01
  3.622814E-01
  3.625011E-01
  3.649440E-01
  3.667807E-01
  3.686199E-01
  3.686282E-01
  3.689982E-01
  3.686885E-01
  3.693433E-01
  3.688816E-01
  3.687058E-01
  3.675385E-01
  3.675907E-01
  3.673436E-01
  3.678906E-01
  3.669098E-01
  3.659093E-01
  3.638769E-01
  3.633258E-01
  3.631018E-01
  3.644921E-01
  3.650294E-01
  3.657114E-01
  3.650504E-01
  3.653730E-01
  3.655197E-01
  3.668248E-01
  3.669413E-01
  3.672118E-01
  3.665210E-01
  3.672431E-01
  3.678141E-01
  3.690495E-01
  3.684085E-01
  3.674976E-01
  3.656090E-01
  3.653393E-01
  3.651261E-01
  3.657428E-01
  3.646707E-01
  3.635180E-01
  3.577992E-01
  3.592847E-01
  3.609178E-01
  3.643668E-01
  3.665265E-01
  3.689769E-01
  3.691241E-01
  3.695597E-01
  3.685696E-01
  3.688911E-01
  3.681415E-01
  3.681855E-01
  3.664464E-01
  3.655774E-01
  3.641127E-01
  3.650471E-01
  3.661069E-01
  3.688380E-01
  3.698136E-01
  3.704513E-01
  3.682407E-01
  3.661062E-01
  3.628494E-01
  3.618982E-01
  3.616580E-01
  3.642630E-01
  3.663803E-01
  3.688664E-01
  3.684708E-01
  3.676608E-01
  3.651467E-01
  3.643650E-01
  3.636726E-01
  3.653824E-01
  3.666645E-01
  3.688688E-01
  3.686730E-01
  3.678922E-01
  3.646759E-01
  3.625236E-01
  3.603146E-01
  3.607603E-01
  3.611357E-01
  3.628643E-01
  3.630580E-01
  3.640348E-01
  3.639948E-01
  3.656373E-01
  3.665106E-01
  3.682092E-01
  3.677356E-01
  3.673745E-01
  3.655831E-01
  3.656402E-01
  3.657019E-01
  3.676959E-01
  3.684650E-01
  3.695941E-01
  3.685221E-01
  3.676907E-01
  3.650360E-01
  3.631432E-01
  3.601452E-01
  3.589307E-01
  3.608316E-01
  3.613851E-01
  3.617521E-01
  3.648782E-01
  3.661469E-01
  3.680762E-01
  3.669174E-01
  3.668244E-01
  3.652260E-01
  3.661838E-01
  3.659546E-01
  3.672594E-01
  3.658908E-01
  3.653969E-01
  3.631050E-01
  3.636233E-01
  3.640515E-01
  3.674524E-01
  3.689767E-01
  3.707081E-01
  3.685335E-01
  3.667083E-01
  3.632511E-01
  3.630865E-01
  3.632471E-01
  3.666268E-01
  3.683745E-01
  3.707024E-01
  3.696164E-01
  3.692106E-01
  3.668926E-01
  3.667252E-01
  3.651446E-01
  3.654278E-01
  3.640676E-01
  3.647349E-01
  3.639049E-01
  3.647609E-01
  3.634633E-01
  3.635632E-01
  3.620147E-01
  3.627968E-01
  3.625172E-01
  3.642778E-01
  3.640576E-01
  3.652025E-01
  3.645491E-01
  3.660190E-01
  3.660164E-01
  3.674015E-01
  3.660748E-01
  3.657921E-01
  3.640822E-01
  3.654327E-01
  3.663693E-01
  3.693816E-01
  3.697153E-01
  3.704407E-01
  3.685419E-01
  3.683626E-01
  3.666626E-01
  3.666101E-01
  3.642605E-01
  3.632448E-01
  3.588347E-01
  3.607982E-01
  3.613596E-01
  3.644652E-01
  3.652458E-01
  3.675339E-01
  3.666405E-01
  3.671424E-01
  3.652143E-01
  3.657276E-01
  3.643530E-01
  3.651279E-01
  3.634192E-01
  3.637940E-01
  3.624461E-01
  3.641936E-01
  3.646698E-01
  3.677558E-01
  3.683404E-01
  3.701164E-01
  3.682586E-01
  3.672846E-01
  3.635169E-01
  3.624502E-01
  3.607356E-01
  3.630199E-01
  3.642476E-01
  3.673917E-01
  3.668566E-01
  3.668099E-01
  3.636924E-01
  3.631167E-01
  3.615749E-01
  3.635198E-01
  3.639847E-01
  3.663616E-01
  3.654420E-01
  3.654046E-01
  3.624474E-01
  3.619163E-01
  3.601976E-01
  3.617222E-01
  3.616473E-01
  3.637165E-01
  3.633009E-01
  3.649223E-01
  3.644824E-01
  3.663536E-01
  3.657722E-01
  3.666296E-01
  3.644097E-01
  3.639549E-01
  3.617356E-01
  3.628145E-01
  3.630125E-01
  3.662622E-01
  3.673983E-01
  3.699986E-01
  3.691034E-01
  3.689789E-01
  3.655449E-01
  3.638822E-01
  3.604191E-01
  3.601125E-01
  3.636707E-01
  3.641637E-01
  3.635566E-01
  3.652230E-01
  3.652288E-01
  3.663375E-01
  3.648501E-01
  3.645424E-01
  3.626912E-01
  3.632057E-01
  3.626239E-01
  3.638705E-01
  3.630760E-01
  3.636253E-01
  3.625617E-01
  3.639057E-01
  3.645813E-01
  3.677484E-01
  3.691608E-01
  3.712295E-01
  3.698306E-01
  3.685353E-01
  3.648141E-01
  3.633239E-01
  3.615435E-01
  3.629909E-01
  3.636359E-01
  3.659412E-01
  3.658345E-01
  3.667182E-01
  3.655616E-01
  3.660965E-01
  3.648561E-01
  3.650661E-01
  3.633437E-01
  3.634464E-01
  3.623282E-01
  3.634527E-01
  3.631139E-01
  3.643602E-01
  3.636644E-01
  3.646176E-01
  3.640507E-01
  3.653991E-01
  3.650115E-01
  3.660392E-01
  3.649879E-01
  3.653790E-01
  3.638643E-01
  3.638498E-01
  3.620312E-01
  3.622461E-01
  3.616569E-01
  3.638762E-01
  3.650300E-01
  3.675943E-01
  3.673859E-01
  3.677815E-01
  3.659314E-01
  3.659640E-01
  3.647684E-01
  3.656018E-01
  3.646588E-01
  3.651116E-01
  3.634073E-01
  3.645585E-01
  3.643514E-01
  3.648624E-01
  3.648268E-01
  3.657817E-01
  3.656623E-01
  3.658066E-01
  3.646501E-01
  3.641221E-01
  3.628264E-01
  3.625284E-01
  3.617872E-01
  3.625214E-01
  3.632671E-01
  3.654422E-01
  3.669058E-01
  3.688589E-01
  3.695163E-01
  3.704711E-01
  3.697883E-01
  3.686858E-01
  3.654513E-01
  3.624392E-01
  3.592761E-01
  3.586237E-01
  3.589830E-01
  3.610957E-01
  3.620838E-01
  3.628567E-01
  3.620493E-01
  3.621885E-01
  3.623547E-01
  3.641511E-01
  3.652507E-01
  3.664587E-01
  3.657486E-01
  3.650311E-01
  3.633548E-01
  3.629742E-01
  3.624840E-01
  3.633439E-01
  3.635897E-01
  3.645856E-01
  3.645593E-01
  3.650633E-01
  3.643778E-01
  3.641070E-01
  3.627434E-01
  3.622400E-01
  3.613611E-01
  3.619791E-01
  3.623818E-01
  3.638215E-01
  3.642566E-01
  3.651180E-01
  3.647820E-01
  3.649056E-01
  3.637681E-01
  3.630166E-01
  3.613770E-01
  3.611126E-01
  3.610285E-01
  3.625681E-01
  3.697201E-01
  3.687599E-01
  3.672429E-01
  3.656066E-01
  3.649322E-01
  3.644667E-01
  3.643661E-01
  3.638143E-01
  3.634570E-01
  3.628641E-01
  3.626806E-01
  3.623311E-01
  3.624927E-01
  3.627805E-01
  3.639141E-01
  3.652355E-01
  3.670575E-01
  3.684823E-01
  3.698476E-01
  3.703198E-01
  3.701720E-01
  3.685694E-01
  3.662226E-01
  3.631854E-01
  3.609443E-01
  3.595820E-01
  3.597577E-01
  3.604474E-01
  3.616619E-01
  3.625515E-01
  3.637782E-01
  3.648390E-01
  3.660496E-01
  3.663096E-01
  3.659273E-01
  3.646502E-01
  3.638256E-01
  3.634479E-01
  3.640671E-01
  3.645952E-01
  3.651747E-01
  3.652268E-01
  3.656381E-01
  3.659404E-01
  3.663650E-01
  3.657611E-01
  3.644943E-01
  3.623920E-01
  3.608387E-01
  3.599683E-01
  3.606816E-01
  3.622759E-01
  3.647945E-01
  3.667807E-01
  3.678842E-01
  3.669780E-01
  3.648688E-01
  3.618956E-01
  3.598204E-01
  3.589883E-01
  3.603212E-01
  3.628913E-01
  3.662997E-01
  3.686923E-01
  3.697206E-01
  3.691246E-01
  3.678045E-01
  3.650860E-01
  3.642716E-01
  3.636484E-01
  3.647451E-01
  3.647443E-01
  3.651821E-01
  3.639126E-01
  3.632133E-01
  3.615251E-01
  3.615301E-01
  3.617029E-01
  3.640398E-01
  3.657538E-01
  3.678868E-01
  3.678980E-01
  3.682215E-01
  3.675050E-01
  3.679821E-01
  3.669788E-01
  3.658019E-01
  3.624212E-01
  3.599076E-01
  3.575156E-01
  3.578613E-01
  3.584197E-01
  3.601394E-01
  3.602884E-01
  3.611501E-01
  3.615213E-01
  3.639336E-01
  3.658882E-01
  3.683020E-01
  3.681563E-01
  3.674332E-01
  3.648538E-01
  3.634970E-01
  3.619919E-01
  3.625065E-01
  3.627502E-01
  3.643690E-01
  3.648655E-01
  3.658087E-01
  3.647688E-01
  3.637912E-01
  3.613360E-01
  3.603120E-01
  3.594938E-01
  3.612150E-01
  3.630060E-01
  3.658485E-01
  3.665569E-01
  3.666501E-01
  3.644202E-01
  3.627978E-01
  3.604561E-01
  3.596961E-01
  3.585786E-01
  3.594428E-01
  3.606848E-01
  3.642583E-01
  3.670966E-01
  3.743159E-01
  3.715887E-01
  3.694038E-01
  3.653336E-01
  3.641702E-01
  3.621631E-01
  3.627665E-01
  3.617287E-01
  3.626461E-01
  3.615684E-01
  3.623125E-01
  3.611519E-01
  3.621746E-01
  3.617862E-01
  3.637940E-01
  3.639952E-01
  3.657795E-01
  3.651076E-01
  3.660736E-01
  3.651884E-01
  3.663848E-01
  3.654607E-01
  3.658354E-01
  3.635992E-01
  3.630987E-01
  3.611481E-01
  3.618917E-01
  3.613125E-01
  3.628843E-01
  3.626947E-01
  3.648362E-01
  3.655829E-01
  3.683137E-01
  3.682448E-01
  3.686192E-01
  3.658450E-01
  3.648351E-01
  3.626674E-01
  3.633937E-01
  3.627623E-01
  3.642097E-01
  3.639004E-01
  3.658469E-01
  3.659763E-01
  3.673773E-01
  3.654128E-01
  3.639674E-01
  3.601718E-01
  3.592056E-01
  3.581402E-01
  3.608279E-01
  3.627482E-01
  3.666294E-01
  3.675189E-01
  3.686132E-01
  3.660629E-01
  3.644388E-01
  3.609352E-01
  3.603874E-01
  3.596398E-01
  3.627302E-01
  3.654428E-01
  3.705400E-01
  3.726165E-01
  3.706340E-01
  3.685838E-01
  3.680434E-01
  3.641021E-01
  3.638022E-01
  3.616091E-01
  3.631197E-01
  3.618228E-01
  3.632045E-01
  3.612407E-01
  3.620128E-01
  3.599754E-01
  3.614776E-01
  3.608702E-01
  3.637991E-01
  3.635346E-01
  3.651938E-01
  3.627590E-01
  3.630304E-01
  3.611966E-01
  3.635380E-01
  3.634016E-01
  3.655202E-01
  3.633799E-01
  3.634972E-01
  3.610709E-01
  3.626686E-01
  3.620222E-01
  3.641875E-01
  3.627967E-01
  3.642497E-01
  3.634683E-01
  3.666847E-01
  3.672383E-01
  3.698898E-01
  3.678716E-01
  3.673506E-01
  3.632829E-01
  3.626248E-01
  3.601039E-01
  3.617960E-01
  3.615745E-01
  3.648225E-01
  3.648325E-01
  3.667633E-01
  3.642481E-01
  3.635622E-01
  3.597056E-01
  3.596758E-01
  3.582705E-01
  3.613243E-01
  3.621885E-01
  3.656662E-01
  3.650042E-01
  3.661541E-01
  3.639064E-01
  3.650461E-01
  3.638422E-01
  3.657734E-01
  3.644051E-01
  3.658278E-01
  3.647874E-01
  3.676716E-01
  3.680261E-01
  3.712099E-01
  3.678070E-01
  3.680533E-01
  3.640780E-01
  3.645376E-01
  3.611370E-01
  3.621109E-01
  3.591818E-01
  3.607452E-01
  3.586288E-01
  3.611080E-01
  3.598218E-01
  3.628804E-01
  3.617463E-01
  3.643840E-01
  3.621822E-01
  3.634404E-01
  3.602427E-01
  3.615727E-01
  3.597142E-01
  3.629954E-01
  3.626177E-01
  3.661457E-01
  3.648271E-01
  3.671621E-01
  3.652403E-01
  3.676181E-01
  3.657983E-01
  3.679669E-01
  3.659751E-01
  3.686126E-01
  3.675829E-01
  3.705721E-01
  3.682157E-01
  3.685216E-01
  3.638010E-01
  3.636683E-01
  3.606284E-01
  3.629071E-01
  3.616282E-01
  3.646762E-01
  3.637791E-01
  3.673076E-01
  3.664758E-01
  3.687637E-01
  3.652029E-01
  3.645352E-01
  3.596300E-01
  3.600133E-01
  3.579584E-01
  3.614257E-01
  3.614180E-01
  3.655064E-01
  3.649608E-01
  3.680581E-01
  3.666212E-01
  3.692248E-01
  3.675934E-01
  3.700481E-01
  3.681586E-01
  3.704522E-01
  3.687382E-01
  3.713634E-01
  3.695499E-01
  3.652375E-01
  3.639131E-01
  3.662201E-01
  3.636907E-01
  3.650764E-01
  3.623522E-01
  3.639177E-01
  3.612843E-01
  3.627214E-01
  3.600273E-01
  3.617773E-01
  3.598942E-01
  3.627824E-01
  3.619214E-01
  3.651095E-01
  3.632718E-01
  3.643890E-01
  3.605071E-01
  3.610791E-01
  3.588581E-01
  3.623422E-01
  3.623584E-01
  3.660136E-01
  3.643496E-01
  3.662065E-01
  3.641073E-01
  3.668141E-01
  3.654729E-01
  3.677344E-01
  3.650461E-01
  3.664324E-01
  3.642708E-01
  3.670519E-01
  3.657390E-01
  3.679321E-01
  3.649172E-01
  3.653974E-01
  3.616343E-01
  3.625699E-01
  3.602885E-01
  3.632737E-01
  3.630025E-01
  3.671986E-01
  3.665703E-01
  3.687816E-01
  3.653251E-01
  3.652678E-01
  3.612094E-01
  3.622351E-01