# vtk DataFile Version 2.0
title
ASCII
DATASET STRUCTURED_GRID
DIMENSIONS   64   64    1
POINTS   4096  float
  0.000000E+00  0.000000E+00  0.000000E+00
  0.000000E+00  3.906250E-01  0.000000E+00
  0.000000E+00  7.812500E-01  0.000000E+00
  0.000000E+00  1.171875E+00  0.000000E+00
  0.000000E+00  1.562500E+00  0.000000E+00
  0.000000E+00  1.953125E+00  0.000000E+00
  0.000000E+00  2.343750E+00  0.000000E+00
  0.000000E+00  2.734375E+00  0.000000E+00
  0.000000E+00  3.125000E+00  0.000000E+00
  0.000000E+00  3.515625E+00  0.000000E+00
  0.000000E+00  3.906250E+00  0.000000E+00
  0.000000E+00  4.296875E+00  0.000000E+00
  0.000000E+00  4.687500E+00  0.000000E+00
  0.000000E+00  5.078125E+00  0.000000E+00
  0.000000E+00  5.468750E+00  0.000000E+00
  0.000000E+00  5.859375E+00  0.000000E+00
  0.000000E+00  6.250000E+00  0.000000E+00
  0.000000E+00  6.640625E+00  0.000000E+00
  0.000000E+00  7.031250E+00  0.000000E+00
  0.000000E+00  7.421875E+00  0.000000E+00
  0.000000E+00  7.812500E+00  0.000000E+00
  0.000000E+00  8.203125E+00  0.000000E+00
  0.000000E+00  8.593750E+00  0.000000E+00
  0.000000E+00  8.984375E+00  0.000000E+00
  0.000000E+00  9.375000E+00  0.000000E+00
  0.000000E+00  9.765625E+00  0.000000E+00
  0.000000E+00  1.015625E+01  0.000000E+00
  0.000000E+00  1.054688E+01  0.000000E+00
  0.000000E+00  1.093750E+01  0.000000E+00
  0.000000E+00  1.132812E+01  0.000000E+00
  0.000000E+00  1.171875E+01  0.000000E+00
  0.000000E+00  1.210938E+01  0.000000E+00
  0.000000E+00  1.250000E+01  0.000000E+00
  0.000000E+00  1.289062E+01  0.000000E+00
  0.000000E+00  1.328125E+01  0.000000E+00
  0.000000E+00  1.367188E+01  0.000000E+00
  0.000000E+00  1.406250E+01  0.000000E+00
  0.000000E+00  1.445312E+01  0.000000E+00
  0.000000E+00  1.484375E+01  0.000000E+00
  0.000000E+00  1.523438E+01  0.000000E+00
  0.000000E+00  1.562500E+01  0.000000E+00
  0.000000E+00  1.601562E+01  0.000000E+00
  0.000000E+00  1.640625E+01  0.000000E+00
  0.000000E+00  1.679688E+01  0.000000E+00
  0.000000E+00  1.718750E+01  0.000000E+00
  0.000000E+00  1.757812E+01  0.000000E+00
  0.000000E+00  1.796875E+01  0.000000E+00
  0.000000E+00  1.835938E+01  0.000000E+00
  0.000000E+00  1.875000E+01  0.000000E+00
  0.000000E+00  1.914062E+01  0.000000E+00
  0.000000E+00  1.953125E+01  0.000000E+00
  0.000000E+00  1.992188E+01  0.000000E+00
  0.000000E+00  2.031250E+01  0.000000E+00
  0.000000E+00  2.070312E+01  0.000000E+00
  0.000000E+00  2.109375E+01  0.000000E+00
  0.000000E+00  2.148438E+01  0.000000E+00
  0.000000E+00  2.187500E+01  0.000000E+00
  0.000000E+00  2.226562E+01  0.000000E+00
  0.000000E+00  2.265625E+01  0.000000E+00
  0.000000E+00  2.304688E+01  0.000000E+00
  0.000000E+00  2.343750E+01  0.000000E+00
  0.000000E+00  2.382812E+01  0.000000E+00
  0.000000E+00  2.421875E+01  0.000000E+00
  0.000000E+00  2.460938E+01  0.000000E+00
  3.906250E-01  0.000000E+00  0.000000E+00
  3.906250E-01  3.906250E-01  0.000000E+00
  3.906250E-01  7.812500E-01  0.000000E+00
  3.906250E-01  1.171875E+00  0.000000E+00
  3.906250E-01  1.562500E+00  0.000000E+00
  3.906250E-01  1.953125E+00  0.000000E+00
  3.906250E-01  2.343750E+00  0.000000E+00
  3.906250E-01  2.734375E+00  0.000000E+00
  3.906250E-01  3.125000E+00  0.000000E+00
  3.906250E-01  3.515625E+00  0.000000E+00
  3.906250E-01  3.906250E+00  0.000000E+00
  3.906250E-01  4.296875E+00  0.000000E+00
  3.906250E-01  4.687500E+00  0.000000E+00
  3.906250E-01  5.078125E+00  0.000000E+00
  3.906250E-01  5.468750E+00  0.000000E+00
  3.906250E-01  5.859375E+00  0.000000E+00
  3.906250E-01  6.250000E+00  0.000000E+00
  3.906250E-01  6.640625E+00  0.000000E+00
  3.906250E-01  7.031250E+00  0.000000E+00
  3.906250E-01  7.421875E+00  0.000000E+00
  3.906250E-01  7.812500E+00  0.000000E+00
  3.906250E-01  8.203125E+00  0.000000E+00
  3.906250E-01  8.593750E+00  0.000000E+00
  3.906250E-01  8.984375E+00  0.000000E+00
  3.906250E-01  9.375000E+00  0.000000E+00
  3.906250E-01  9.765625E+00  0.000000E+00
  3.906250E-01  1.015625E+01  0.000000E+00
  3.906250E-01  1.054688E+01  0.000000E+00
  3.906250E-01  1.093750E+01  0.000000E+00
  3.906250E-01  1.132812E+01  0.000000E+00
  3.906250E-01  1.171875E+01  0.000000E+00
  3.906250E-01  1.210938E+01  0.000000E+00
  3.906250E-01  1.250000E+01  0.000000E+00
  3.906250E-01  1.289062E+01  0.000000E+00
  3.906250E-01  1.328125E+01  0.000000E+00
  3.906250E-01  1.367188E+01  0.000000E+00
  3.906250E-01  1.406250E+01  0.000000E+00
  3.906250E-01  1.445312E+01  0.000000E+00
  3.906250E-01  1.484375E+01  0.000000E+00
  3.906250E-01  1.523438E+01  0.000000E+00
  3.906250E-01  1.562500E+01  0.000000E+00
  3.906250E-01  1.601562E+01  0.000000E+00
  3.906250E-01  1.640625E+01  0.000000E+00
  3.906250E-01  1.679688E+01  0.000000E+00
  3.906250E-01  1.718750E+01  0.000000E+00
  3.906250E-01  1.757812E+01  0.000000E+00
  3.906250E-01  1.796875E+01  0.000000E+00
  3.906250E-01  1.835938E+01  0.000000E+00
  3.906250E-01  1.875000E+01  0.000000E+00
  3.906250E-01  1.914062E+01  0.000000E+00
  3.906250E-01  1.953125E+01  0.000000E+00
  3.906250E-01  1.992188E+01  0.000000E+00
  3.906250E-01  2.031250E+01  0.000000E+00
  3.906250E-01  2.070312E+01  0.000000E+00
  3.906250E-01  2.109375E+01  0.000000E+00
  3.906250E-01  2.148438E+01  0.000000E+00
  3.906250E-01  2.187500E+01  0.000000E+00
  3.906250E-01  2.226562E+01  0.000000E+00
  3.906250E-01  2.265625E+01  0.000000E+00
  3.906250E-01  2.304688E+01  0.000000E+00
  3.906250E-01  2.343750E+01  0.000000E+00
  3.906250E-01  2.382812E+01  0.000000E+00
  3.906250E-01  2.421875E+01  0.000000E+00
  3.906250E-01  2.460938E+01  0.000000E+00
  7.812500E-01  0.000000E+00  0.000000E+00
  7.812500E-01  3.906250E-01  0.000000E+00
  7.812500E-01  7.812500E-01  0.000000E+00
  7.812500E-01  1.171875E+00  0.000000E+00
  7.812500E-01  1.562500E+00  0.000000E+00
  7.812500E-01  1.953125E+00  0.000000E+00
  7.812500E-01  2.343750E+00  0.000000E+00
  7.812500E-01  2.734375E+00  0.000000E+00
  7.812500E-01  3.125000E+00  0.000000E+00
  7.812500E-01  3.515625E+00  0.000000E+00
  7.812500E-01  3.906250E+00  0.000000E+00
  7.812500E-01  4.296875E+00  0.000000E+00
  7.812500E-01  4.687500E+00  0.000000E+00
  7.812500E-01  5.078125E+00  0.000000E+00
  7.812500E-01  5.468750E+00  0.000000E+00
  7.812500E-01  5.859375E+00  0.000000E+00
  7.812500E-01  6.250000E+00  0.000000E+00
  7.812500E-01  6.640625E+00  0.000000E+00
  7.812500E-01  7.031250E+00  0.000000E+00
  7.812500E-01  7.421875E+00  0.000000E+00
  7.812500E-01  7.812500E+00  0.000000E+00
  7.812500E-01  8.203125E+00  0.000000E+00
  7.812500E-01  8.593750E+00  0.000000E+00
  7.812500E-01  8.984375E+00  0.000000E+00
  7.812500E-01  9.375000E+00  0.000000E+00
  7.812500E-01  9.765625E+00  0.000000E+00
  7.812500E-01  1.015625E+01  0.000000E+00
  7.812500E-01  1.054688E+01  0.000000E+00
  7.812500E-01  1.093750E+01  0.000000E+00
  7.812500E-01  1.132812E+01  0.000000E+00
  7.812500E-01  1.171875E+01  0.000000E+00
  7.812500E-01  1.210938E+01  0.000000E+00
  7.812500E-01  1.250000E+01  0.000000E+00
  7.812500E-01  1.289062E+01  0.000000E+00
  7.812500E-01  1.328125E+01  0.000000E+00
  7.812500E-01  1.367188E+01  0.000000E+00
  7.812500E-01  1.406250E+01  0.000000E+00
  7.812500E-01  1.445312E+01  0.000000E+00
  7.812500E-01  1.484375E+01  0.000000E+00
  7.812500E-01  1.523438E+01  0.000000E+00
  7.812500E-01  1.562500E+01  0.000000E+00
  7.812500E-01  1.601562E+01  0.000000E+00
  7.812500E-01  1.640625E+01  0.000000E+00
  7.812500E-01  1.679688E+01  0.000000E+00
  7.812500E-01  1.718750E+01  0.000000E+00
  7.812500E-01  1.757812E+01  0.000000E+00
  7.812500E-01  1.796875E+01  0.000000E+00
  7.812500E-01  1.835938E+01  0.000000E+00
  7.812500E-01  1.875000E+01  0.000000E+00
  7.812500E-01  1.914062E+01  0.000000E+00
  7.812500E-01  1.953125E+01  0.000000E+00
  7.812500E-01  1.992188E+01  0.000000E+00
  7.812500E-01  2.031250E+01  0.000000E+00
  7.812500E-01  2.070312E+01  0.000000E+00
  7.812500E-01  2.109375E+01  0.000000E+00
  7.812500E-01  2.148438E+01  0.000000E+00
  7.812500E-01  2.187500E+01  0.000000E+00
  7.812500E-01  2.226562E+01  0.000000E+00
  7.812500E-01  2.265625E+01  0.000000E+00
  7.812500E-01  2.304688E+01  0.000000E+00
  7.812500E-01  2.343750E+01  0.000000E+00
  7.812500E-01  2.382812E+01  0.000000E+00
  7.812500E-01  2.421875E+01  0.000000E+00
  7.812500E-01  2.460938E+01  0.000000E+00
  1.171875E+00  0.000000E+00  0.000000E+00
  1.171875E+00  3.906250E-01  0.000000E+00
  1.171875E+00  7.812500E-01  0.000000E+00
  1.171875E+00  1.171875E+00  0.000000E+00
  1.171875E+00  1.562500E+00  0.000000E+00
  1.171875E+00  1.953125E+00  0.000000E+00
  1.171875E+00  2.343750E+00  0.000000E+00
  1.171875E+00  2.734375E+00  0.000000E+00
  1.171875E+00  3.125000E+00  0.000000E+00
  1.171875E+00  3.515625E+00  0.000000E+00
  1.171875E+00  3.906250E+00  0.000000E+00
  1.171875E+00  4.296875E+00  0.000000E+00
  1.171875E+00  4.687500E+00  0.000000E+00
  1.171875E+00  5.078125E+00  0.000000E+00
  1.171875E+00  5.468750E+00  0.000000E+00
  1.171875E+00  5.859375E+00  0.000000E+00
  1.171875E+00  6.250000E+00  0.000000E+00
  1.171875E+00  6.640625E+00  0.000000E+00
  1.171875E+00  7.031250E+00  0.000000E+00
  1.171875E+00  7.421875E+00  0.000000E+00
  1.171875E+00  7.812500E+00  0.000000E+00
  1.171875E+00  8.203125E+00  0.000000E+00
  1.171875E+00  8.593750E+00  0.000000E+00
  1.171875E+00  8.984375E+00  0.000000E+00
  1.171875E+00  9.375000E+00  0.000000E+00
  1.171875E+00  9.765625E+00  0.000000E+00
  1.171875E+00  1.015625E+01  0.000000E+00
  1.171875E+00  1.054688E+01  0.000000E+00
  1.171875E+00  1.093750E+01  0.000000E+00
  1.171875E+00  1.132812E+01  0.000000E+00
  1.171875E+00  1.171875E+01  0.000000E+00
  1.171875E+00  1.210938E+01  0.000000E+00
  1.171875E+00  1.250000E+01  0.000000E+00
  1.171875E+00  1.289062E+01  0.000000E+00
  1.171875E+00  1.328125E+01  0.000000E+00
  1.171875E+00  1.367188E+01  0.000000E+00
  1.171875E+00  1.406250E+01  0.000000E+00
  1.171875E+00  1.445312E+01  0.000000E+00
[...]
POINT_DATA   4096
SCALARS CON  float  1
LOOKUP_TABLE default
  4.477792E-01
  4.459672E-01
  4.514229E-01
  4.510997E-01
  4.515248E-01
  4.443326E-01
  4.441209E-01
  4.438495E-01
  4.503711E-01
  4.492950E-01
  4.492583E-01
  4.437893E-01
  4.454698E-01
  4.439396E-01
  4.465014E-01
  4.433859E-01
  4.464595E-01
  4.467791E-01
  4.514800E-01
  4.483386E-01
  4.478267E-01
  4.426392E-01
  4.434697E-01
  4.403622E-01
  4.424470E-01
  4.395386E-01
  4.412944E-01
  4.397452E-01
  4.461128E-01
  4.488351E-01
  4.526519E-01
  4.459537E-01
  4.432068E-01
  4.406348E-01
  4.474665E-01
  4.483659E-01
  4.496300E-01
  4.435806E-01
  4.430677E-01
  4.395374E-01
  4.424042E-01
  4.409379E-01
  4.431872E-01
  4.397703E-01
  4.421843E-01
  4.406243E-01
  4.431542E-01
  4.417456E-01
  4.486909E-01
  4.512692E-01
  4.530006E-01
  4.445756E-01
  4.422365E-01
  4.396199E-01
  4.447549E-01
  4.468851E-01
  4.550677E-01
  4.563031E-01
  4.573671E-01
  4.507363E-01
  4.508278E-01
  4.487856E-01
  4.513794E-01
  4.472220E-01
  4.474989E-01
  4.466364E-01
  4.544164E-01
  4.574100E-01
  4.573686E-01
  4.471213E-01
  4.425466E-01
  4.409013E-01
  4.473769E-01
  4.474413E-01
  4.475390E-01
  4.438353E-01
  4.472504E-01
  4.470313E-01
  4.476887E-01
  4.424904E-01
  4.440256E-01
  4.459109E-01
  4.528888E-01
  4.522796E-01
  4.509000E-01
  4.433027E-01
  4.414046E-01
  4.391100E-01
  4.432648E-01
  4.429907E-01
  4.448559E-01
  4.423574E-01
  4.459853E-01
  4.473360E-01
  4.509387E-01
  4.465373E-01
  4.448937E-01
  4.419486E-01
  4.457099E-01
  4.448798E-01
  4.459362E-01
  4.422600E-01
  4.436291E-01
  4.420237E-01
  4.441254E-01
  4.405187E-01
  4.396003E-01
  4.356414E-01
  4.381695E-01
  4.378969E-01
  4.413744E-01
  4.424924E-01
  4.513212E-01
  4.557409E-01
  4.568618E-01
  4.470009E-01
  4.425547E-01
  4.408587E-01
  4.479522E-01
  4.517395E-01
  4.579381E-01
  4.565775E-01
  4.549643E-01
  4.476432E-01
  4.472021E-01
  4.466603E-01
  4.506055E-01
  4.476805E-01
  4.408512E-01
  4.456032E-01
  4.551379E-01
  4.587483E-01
  4.564433E-01
  4.473465E-01
  4.434352E-01
  4.430859E-01
  4.472124E-01
  4.474024E-01
  4.478821E-01
  4.464324E-01
  4.483838E-01
  4.480131E-01
  4.483318E-01
  4.456847E-01
  4.467191E-01
  4.478096E-01
  4.514156E-01
  4.506892E-01
  4.496772E-01
  4.452860E-01
  4.435382E-01
  4.413051E-01
  4.430889E-01
  4.428716E-01
  4.434456E-01
  4.412276E-01
  4.426221E-01
  4.430320E-01
  4.443443E-01
  4.411802E-01
  4.405876E-01
  4.412124E-01
  4.465615E-01
  4.481839E-01
  4.482519E-01
  4.441750E-01
  4.432000E-01
  4.416859E-01
  4.428629E-01
  4.406465E-01
  4.386901E-01
  4.342236E-01
  4.345221E-01
  4.360942E-01
  4.416627E-01
  4.460261E-01
  4.536437E-01
  4.570113E-01
  4.559324E-01
  4.473533E-01
  4.429187E-01
  4.422121E-01
  4.473733E-01
  4.510381E-01
  4.565675E-01
  4.573940E-01
  4.551167E-01
  4.465327E-01
  4.412256E-01
  4.377527E-01
  4.388214E-01
  4.379625E-01
  4.401457E-01
  4.464753E-01
  4.542714E-01
  4.590628E-01
  4.538620E-01
  4.452710E-01
  4.388968E-01
  4.401660E-01
  4.432898E-01
  4.464552E-01
  4.468330E-01
  4.489042E-01
  4.505010E-01
  4.516760E-01
  4.486527E-01
  4.461335E-01
  4.450026E-01
  4.480021E-01
  4.499732E-01
  4.509176E-01
  4.485601E-01
  4.471389E-01
  4.457287E-01
  4.470133E-01
  4.476035E-01
  4.483824E-01
  4.460057E-01
  4.435615E-01
  4.405932E-01
  4.412032E-01
  4.427216E-01
  4.454762E-01
  4.454899E-01
  4.456227E-01
  4.445122E-01
  4.445610E-01
  4.429111E-01
  4.427828E-01
  4.434005E-01
  4.468168E-01
  4.472173E-01
  4.446532E-01
  4.393249E-01
  4.382479E-01
  4.398220E-01
  4.432950E-01
  4.439599E-01
  4.456847E-01
  4.482496E-01
  4.522462E-01
  4.506434E-01
  4.457310E-01
  4.411920E-01
  4.440151E-01
  4.496014E-01
  4.555547E-01
  4.572549E-01
  4.567491E-01
  4.512713E-01
  4.449875E-01
  4.393734E-01
  4.387108E-01
  4.385741E-01
  4.392988E-01
  4.375479E-01
  4.477443E-01
  4.519202E-01
  4.556581E-01
  4.472164E-01
  4.428745E-01
  4.371297E-01
  4.408020E-01
  4.403519E-01
  4.454614E-01
  4.455732E-01
  4.507400E-01
  4.487212E-01
  4.503280E-01
  4.458695E-01
  4.475892E-01
  4.452866E-01
  4.491363E-01
  4.468016E-01
  4.488565E-01
  4.458443E-01
  4.493319E-01
  4.469561E-01
  4.483075E-01
  4.435708E-01
  4.451869E-01
  4.419785E-01
  4.433183E-01
  4.384524E-01
  4.403017E-01
  4.395198E-01
  4.451617E-01
  4.434823E-01
  4.454986E-01
  4.429158E-01
  4.467844E-01
  4.438774E-01
  4.447521E-01
  4.413841E-01
  4.456807E-01
  4.438781E-01
  4.444249E-01
  4.387497E-01
  4.417432E-01
  4.431044E-01
  4.497406E-01
  4.470077E-01
  4.467214E-01
  4.421703E-01
  4.456945E-01
  4.435092E-01
  4.444232E-01
  4.401363E-01
  4.441752E-01
  4.445789E-01
  4.500601E-01
  4.496130E-01
  4.536575E-01
  4.493163E-01
  4.473714E-01
  4.395077E-01
  4.384278E-01
  4.335115E-01
  4.362696E-01
  4.429810E-01
  4.497885E-01
  4.498816E-01
  4.531029E-01
  4.449365E-01
  4.418438E-01
  4.345323E-01
  4.372989E-01
  4.357844E-01
  4.420361E-01
  4.422399E-01
  4.487743E-01
  4.469842E-01
  4.493285E-01
  4.432742E-01
  4.445689E-01
  4.419904E-01
  4.483648E-01
  4.478256E-01
  4.517738E-01
  4.474584E-01
  4.497295E-01
  4.450584E-01
  4.458154E-01
  4.397680E-01
  4.426095E-01
  4.411380E-01
  4.453936E-01
  4.403682E-01
  4.426832E-01
  4.429972E-01
  4.520089E-01
  4.496716E-01
  4.480359E-01
  4.396395E-01
  4.421696E-01
  4.404913E-01
  4.449200E-01
  4.430948E-01
  4.490227E-01
  4.458160E-01
  4.446551E-01
  4.374993E-01
  4.440062E-01
  4.491766E-01
  4.578798E-01
  4.515217E-01
  4.469768E-01
  4.383325E-01
  4.420103E-01
  4.411092E-01
  4.444074E-01
  4.396359E-01
  4.435606E-01
  4.427722E-01
  4.477133E-01
  4.442607E-01
  4.469976E-01
  4.434915E-01
  4.471130E-01
  4.441789E-01
  4.471686E-01
  4.425951E-01
  4.450557E-01
  4.433877E-01
  4.478434E-01
  4.469746E-01
  4.479739E-01
  4.430707E-01
  4.428106E-01
  4.396349E-01
  4.408353E-01
  4.379127E-01
  4.410963E-01
  4.423164E-01
  4.471042E-01
  4.446256E-01
  4.445659E-01
  4.413000E-01
  4.444453E-01
  4.450499E-01
  4.503683E-01
  4.503442E-01
  4.524254E-01
  4.490468E-01
  4.498363E-01
  4.450011E-01
  4.415344E-01
  4.336325E-01
  4.344799E-01
  4.364967E-01
  4.432750E-01
  4.422018E-01
  4.437504E-01
  4.441267E-01
  4.506633E-01
  4.489107E-01
  4.464573E-01
  4.412446E-01
  4.454848E-01
  4.468496E-01
  4.493451E-01
  4.458191E-01
  4.473326E-01
  4.440674E-01
  4.427771E-01
  4.380294E-01
  4.427646E-01
  4.482547E-01
  4.569062E-01
  4.544294E-01
  4.500689E-01
  4.416620E-01
  4.423122E-01
  4.419520E-01
  4.447506E-01
  4.414615E-01
  4.423380E-01
  4.394740E-01
  4.408303E-01
  4.386634E-01
  4.422421E-01
  4.429375E-01
  4.481270E-01
  4.476718E-01
  4.486563E-01
  4.437372E-01
  4.443422E-01
  4.451215E-01
  4.444823E-01
  4.443503E-01
  4.466794E-01
  4.464240E-01
  4.463008E-01
  4.441296E-01
  4.433945E-01
  4.415552E-01
  4.427154E-01
  4.439601E-01
  4.466486E-01
  4.459306E-01
  4.450786E-01
  4.430356E-01
  4.446287E-01
  4.471645E-01
  4.525865E-01
  4.553493E-01
  4.560339E-01
  4.518821E-01
  4.488728E-01
  4.451444E-01
  4.422826E-01
  4.374452E-01
  4.370990E-01
  4.399190E-01
  4.452314E-01
  4.456473E-01
  4.460426E-01
  4.484489E-01
  4.549453E-01
  4.553293E-01
  4.503590E-01
  4.437558E-01
  4.446796E-01
  4.477006E-01
  4.504283E-01
  4.494500E-01
  4.501941E-01
  4.484184E-01
  4.452523E-01
  4.408038E-01
  4.430454E-01
  4.484036E-01
  4.541872E-01
  4.529221E-01
  4.489116E-01
  4.440351E-01
  4.444831E-01
  4.452233E-01
  4.456129E-01
  4.428038E-01
  4.429400E-01
  4.435992E-01
  4.452259E-01
  4.430214E-01
  4.415580E-01
  4.408271E-01
  4.448887E-01
  4.483684E-01
  4.512676E-01
  4.498528E-01
  4.483933E-01
  4.390447E-01
  4.403381E-01
  4.421416E-01
  4.459664E-01
  4.473816E-01
  4.495891E-01
  4.500577E-01
  4.504469E-01
  4.477774E-01
  4.474453E-01
  4.477744E-01
  4.492085E-01
  4.467287E-01
  4.451478E-01
  4.447239E-01
  4.483529E-01
  4.509725E-01
  4.542333E-01
  4.545741E-01
  4.538053E-01
  4.496032E-01
  4.475123E-01
  4.453996E-01
  4.440709E-01
  4.402081E-01
  4.396434E-01
  4.414263E-01
  4.458543E-01
  4.462292E-01
  4.459431E-01
  4.460670E-01
  4.501596E-01
  4.511389E-01
  4.500243E-01
  4.479973E-01
  4.510555E-01
  4.530592E-01
  4.525917E-01
  4.478821E-01
  4.458094E-01
  4.445089E-01
  4.450424E-01
  4.435021E-01
  4.436071E-01
  4.435426E-01
  4.458663E-01
  4.460899E-01
  4.462861E-01
  4.449986E-01
  4.466638E-01
  4.472676E-01
  4.474482E-01
  4.446464E-01
  4.442868E-01
  4.446940E-01
  4.472733E-01
  4.468475E-01
  4.457810E-01
  4.430448E-01
  4.433696E-01
  4.432673E-01
  4.437732E-01
  4.416532E-01
  4.407427E-01
  4.392106E-01
  4.393543E-01
  4.418714E-01
  4.474750E-01
  4.490496E-01
  4.496877E-01
  4.483818E-01
  4.492044E-01
  4.482367E-01
  4.489285E-01
  4.485635E-01
  4.498934E-01
  4.485361E-01
  4.478865E-01
  4.458357E-01
  4.463564E-01
  4.463116E-01
  4.493131E-01
  4.511625E-01
  4.521965E-01
  4.478636E-01
  4.446983E-01
  4.429201E-01
  4.450790E-01
  4.454392E-01
  4.472296E-01
  4.481651E-01
  4.502305E-01
  4.480732E-01
  4.463432E-01
  4.455712E-01
  4.495922E-01
  4.510013E-01
  4.503190E-01
  4.470311E-01
  4.481004E-01
  4.490123E-01
  4.494314E-01
  4.459811E-01
  4.447713E-01
  4.435660E-01
  4.447214E-01
  4.445985E-01
  4.461823E-01
  4.448887E-01
  4.434581E-01
  4.402087E-01
  4.407052E-01
  4.426749E-01
  4.479648E-01
  4.498376E-01
  4.493122E-01
  4.452669E-01
  4.456756E-01
  4.488919E-01
  4.544677E-01
  4.538789E-01
  4.496193E-01
  4.427957E-01
  4.410490E-01
  4.412466E-01
  4.440001E-01
  4.437309E-01
  4.428339E-01
  4.373758E-01
  4.389199E-01
  4.416874E-01
  4.452415E-01
  4.461868E-01
  4.473285E-01
  4.481858E-01
  4.494237E-01
  4.483318E-01
  4.481804E-01
  4.484807E-01
  4.494416E-01
  4.475727E-01
  4.457151E-01
  4.441343E-01
  4.444901E-01
  4.441612E-01
  4.455471E-01
  4.472227E-01
  4.487438E-01
  4.465687E-01
  4.440993E-01
  4.420559E-01
  4.424101E-01
  4.429076E-01
  4.456565E-01
  4.485316E-01
  4.509394E-01
  4.489947E-01
  4.453567E-01
  4.416137E-01
  4.415577E-01
  4.423088E-01
  4.440043E-01
  4.454455E-01
  4.488186E-01
  4.501577E-01
  4.487680E-01
  4.435658E-01
  4.393507E-01
  4.372754E-01
  4.400791E-01
  4.439954E-01
  4.468343E-01
  4.449410E-01
  4.420297E-01
  4.396129E-01
  4.411653E-01
  4.446048E-01
  4.493810E-01
  4.506825E-01
  4.491901E-01
  4.453890E-01
  4.444744E-01
  4.462888E-01
  4.508868E-01
  4.527282E-01
  4.513296E-01
  4.467810E-01
  4.443295E-01
  4.430786E-01
  4.428967E-01
  4.407390E-01
  4.389808E-01
  4.413528E-01
  4.407562E-01
  4.420349E-01
  4.451002E-01
  4.462052E-01
  4.465230E-01
  4.455661E-01
  4.453654E-01
  4.444836E-01
  4.449844E-01
  4.457425E-01
  4.475307E-01
  4.473187E-01
  4.459905E-01
  4.430741E-01
  4.418340E-01
  4.420341E-01
  4.456426E-01
  4.497952E-01
  4.525574E-01
  4.500282E-01
  4.456529E-01
  4.416990E-01
  4.412838E-01
  4.425387E-01
  4.465967E-01
  4.507501E-01
  4.535751E-01
  4.513751E-01
  4.473105E-01
  4.437411E-01
  4.438870E-01
  4.442272E-01
  4.439654E-01
  4.423721E-01
  4.431915E-01
  4.447036E-01
  4.460304E-01
  4.443400E-01
  4.419661E-01
  4.391892E-01
  4.396075E-01
  4.425508E-01
  4.472161E-01
  4.483663E-01
  4.467259E-01
  4.437270E-01
  4.442034E-01
  4.469914E-01
  4.506293E-01
  4.501117E-01
  4.467662E-01
  4.424666E-01
  4.422577E-01
  4.451361E-01
  4.498610E-01
  4.512595E-01
  4.498543E-01
  4.468893E-01
  4.470260E-01
  4.483961E-01
  4.496576E-01
  4.476547E-01
  4.447589E-01
  4.396050E-01
  4.424140E-01
  4.424535E-01
  4.447912E-01
  4.449332E-01
  4.477690E-01
  4.470416E-01
  4.467018E-01
  4.429224E-01
  4.435550E-01
  4.442494E-01
  4.472780E-01
  4.450791E-01
  4.437642E-01
  4.413568E-01
  4.440815E-01
  4.457154E-01
  4.499281E-01
  4.510130E-01
  4.531247E-01
  4.504177E-01
  4.483921E-01
  4.431366E-01
  4.408738E-01
  4.382303E-01
  4.415561E-01
  4.449471E-01
  4.501957E-01
  4.494067E-01
  4.478010E-01
  4.432268E-01
  4.431805E-01
  4.422874E-01
  4.440412E-01
  4.434473E-01
  4.461606E-01
  4.461997E-01
  4.470740E-01
  4.435726E-01
  4.418099E-01
  4.385640E-01
  4.404188E-01
  4.417369E-01
  4.450733E-01
  4.444409E-01
  4.461643E-01
  4.461710E-01
  4.491137E-01
  4.490513E-01
  4.497879E-01
  4.456794E-01
  4.432935E-01
  4.397831E-01
  4.405558E-01
  4.399963E-01
  4.431507E-01
  4.448437E-01
  4.488733E-01
  4.493299E-01
  4.513300E-01
  4.492574E-01
  4.472934E-01
  4.417154E-01
  4.404970E-01
  4.429112E-01
  4.449374E-01
  4.438033E-01
  4.467010E-01
  4.467312E-01
  4.486334E-01
  4.452393E-01
  4.439684E-01
  4.403792E-01
  4.419856E-01
  4.420938E-01
  4.455531E-01
  4.442965E-01
  4.443867E-01
  4.413305E-01
  4.435470E-01
  4.445140E-01
  4.489908E-01
  4.496922E-01
  4.525372E-01
  4.502510E-01
  4.491281E-01
  4.441475E-01
  4.431716E-01
  4.403924E-01
  4.423394E-01
  4.426981E-01
  4.468153E-01
  4.465482E-01
  4.478663E-01
  4.461786E-01
  4.491354E-01
  4.485673E-01
  4.484319E-01
  4.433787E-01
  4.430006E-01
  4.418075E-01
  4.445403E-01
  4.439764E-01
  4.465765E-01
  4.453280E-01
  4.460340E-01
  4.431561E-01
  4.442858E-01
  4.434141E-01
  4.463305E-01
  4.457059E-01
  4.474545E-01
  4.453553E-01
  4.455351E-01
  4.413645E-01
  4.405728E-01
  4.388099E-01
  4.423953E-01
  4.431594E-01
  4.462104E-01
  4.453480E-01
  4.476321E-01
  4.470874E-01
  4.496250E-01
  4.476023E-01
  4.470255E-01
  4.431177E-01
  4.439861E-01
  4.432204E-01
  4.454068E-01
  4.442926E-01
  4.443679E-01
  4.449376E-01
  4.472702E-01
  4.473172E-01
  4.463934E-01
  4.434147E-01
  4.426052E-01
  4.425078E-01
  4.437059E-01
  4.424082E-01
  4.417711E-01
  4.420654E-01
  4.454884E-01
  4.469308E-01
  4.468081E-01
  4.450404E-01
  4.465565E-01
  4.485264E-01
  4.500234E-01
  4.474078E-01
  4.442846E-01
  4.403445E-01
  4.385000E-01
  4.373499E-01
  4.398106E-01
  4.423967E-01
  4.444884E-01
  4.435752E-01
  4.440986E-01
  4.445380E-01
  4.455813E-01
  4.449325E-01
  4.457647E-01
  4.452500E-01
  4.445577E-01
  4.428105E-01
  4.440380E-01
  4.456396E-01
  4.474615E-01
  4.455739E-01
  4.430535E-01
  4.408881E-01
  4.428197E-01
  4.443903E-01
  4.449313E-01
  4.424164E-01
  4.406426E-01
  4.385933E-01
  4.396273E-01
  4.420026E-01
  4.458150E-01
  4.462829E-01
  4.458094E-01
  4.446449E-01
  4.460300E-01
  4.464321E-01
  4.461150E-01
  4.424447E-01
  4.393217E-01
  4.374539E-01
  4.402128E-01
  4.510265E-01
  4.475207E-01
  4.452537E-01
  4.431157E-01
  4.451138E-01
  4.450182E-01
  4.460780E-01
  4.447115E-01
  4.452402E-01
  4.430394E-01
  4.427701E-01
  4.413540E-01
  4.428600E-01
  4.425789E-01
  4.451755E-01
  4.464911E-01
  4.485587E-01
  4.460259E-01
  4.457801E-01
  4.465588E-01
  4.508100E-01
  4.503138E-01
  4.487208E-01
  4.446929E-01
  4.435995E-01
  4.402004E-01
  4.392491E-01
  4.388469E-01
  4.425467E-01
  4.429274E-01
  4.435986E-01
  4.430979E-01
  4.460335E-01
  4.456130E-01
  4.453125E-01
  4.430754E-01
  4.437483E-01
  4.422325E-01
  4.435147E-01
  4.447817E-01
  4.484423E-01
  4.473737E-01
  4.460940E-01
  4.435099E-01
  4.452802E-01
  4.453631E-01
  4.452552E-01
  4.409967E-01
  4.395727E-01
  4.383489E-01
  4.404143E-01
  4.410362E-01
  4.453746E-01
  4.489361E-01
  4.528721E-01
  4.505263E-01
  4.472296E-01
  4.420007E-01
  4.406587E-01
  4.384604E-01
  4.391420E-01
  4.397297E-01
  4.449905E-01
  4.485419E-01
  4.541395E-01
  4.501077E-01
  4.463514E-01
  4.417652E-01
  4.429202E-01
  4.432683E-01
  4.463783E-01
  4.461399E-01
  4.473109E-01
  4.448614E-01
  4.447810E-01
  4.420242E-01
  4.417515E-01
  4.404009E-01
  4.452985E-01
  4.497041E-01
  4.537395E-01
  4.498178E-01
  4.472098E-01
  4.457434E-01
  4.500142E-01
  4.497405E-01
  4.478308E-01
  4.418900E-01
  4.400548E-01
  4.369226E-01
  4.376148E-01
  4.383699E-01
  4.429899E-01
  4.418914E-01
  4.398820E-01
  4.368614E-01
  4.410496E-01
  4.446590E-01
  4.494573E-01
  4.491806E-01
  4.489240E-01
  4.441067E-01
  4.424122E-01
  4.406304E-01
  4.431468E-01
  4.427235E-01
  4.440971E-01
  4.433327E-01
  4.464569E-01
  4.465777E-01
  4.463221E-01
  4.410578E-01
  4.397800E-01
  4.392724E-01
  4.429929E-01
  4.440063E-01
  4.478714E-01
  4.490688E-01
  4.505261E-01
  4.459633E-01
  4.430031E-01
  4.391230E-01
  4.392659E-01
  4.366432E-01
  4.370083E-01
  4.377416E-01
  4.448719E-01
  4.501337E-01
  4.586146E-01
  4.530556E-01
  4.476701E-01
  4.444008E-01
  4.440961E-01
  4.427705E-01
  4.418497E-01
  4.415918E-01
  4.437166E-01
  4.445953E-01
  4.445819E-01
  4.427301E-01
  4.414625E-01
  4.402938E-01
  4.424341E-01
  4.462141E-01
  4.499675E-01
  4.494367E-01
  4.477731E-01
  4.466259E-01
  4.476261E-01
  4.465708E-01
  4.443044E-01
  4.415003E-01
  4.410717E-01
  4.404546E-01
  4.410847E-01
  4.426562E-01
  4.454037E-01
  4.444553E-01
  4.421805E-01
  4.419204E-01
  4.467129E-01
  4.506400E-01
  4.513541E-01
  4.481613E-01
  4.453538E-01
  4.428234E-01
  4.428359E-01
  4.434424E-01
  4.440958E-01
  4.423310E-01
  4.424360E-01
  4.454847E-01
  4.507229E-01
  4.511544E-01
  4.465231E-01
  4.396613E-01
  4.378740E-01
  4.404619E-01
  4.448415E-01
  4.461022E-01
  4.469490E-01
  4.478636E-01
  4.489934E-01
  4.462115E-01
  4.421612E-01
  4.387105E-01
  4.384617E-01
  4.384116E-01
  4.401808E-01
  4.443214E-01
  4.522567E-01
  4.579995E-01
  4.530846E-01
  4.510578E-01
  4.471927E-01
  4.442865E-01
  4.432142E-01
  4.427157E-01
  4.420681E-01
  4.416776E-01
  4.422052E-01
  4.433695E-01
  4.442010E-01
  4.431417E-01
  4.400911E-01
  4.375471E-01
  4.385620E-01
  4.425167E-01
  4.457476E-01
  4.455223E-01
  4.429500E-01
  4.410754E-01
  4.418030E-01
  4.438093E-01
  4.446376E-01
  4.435510E-01
  4.418503E-01
  4.405377E-01
  4.407313E-01
  4.431827E-01
  4.460493E-01
  4.456558E-01
  4.426838E-01
  4.421158E-01
  4.462257E-01
  4.511150E-01
  4.524234E-01
  4.498569E-01
  4.461186E-01
  4.433526E-01
  4.422670E-01
  4.420538E-01
  4.418103E-01
  4.416386E-01
  4.428821E-01
  4.459095E-01
  4.489190E-01
  4.487624E-01
  4.446793E-01
  4.396202E-01
  4.376998E-01
  4.396749E-01
  4.428721E-01
  4.446783E-01
  4.453482E-01
  4.455258E-01
  4.444187E-01
  4.418409E-01
  4.405494E-01
  4.425074E-01
  4.457021E-01
  4.465209E-01
  4.450372E-01
  4.445217E-01
  4.472062E-01
  4.512520E-01
  4.505289E-01
  4.470660E-01
  4.466029E-01
  4.443321E-01
  4.454378E-01
  4.426290E-01
  4.419011E-01
  4.387497E-01
  4.399154E-01
  4.390545E-01
  4.414520E-01
  4.408742E-01
  4.427175E-01
  4.407807E-01
  4.414384E-01
  4.393986E-01
  4.407388E-01
  4.392156E-01
  4.402322E-01
  4.381462E-01
  4.403072E-01
  4.418134E-01
  4.472398E-01
  4.481084E-01
  4.492072E-01
  4.457703E-01
  4.462627E-01
  4.460254E-01
  4.491118E-01
  4.471040E-01
  4.472464E-01
  4.470329E-01
  4.519938E-01
  4.514915E-01
  4.490259E-01
  4.419464E-01
  4.407347E-01
  4.402405E-01
  4.441881E-01
  4.445392E-01
  4.460823E-01
  4.433811E-01
  4.447816E-01
  4.457098E-01
  4.494700E-01
  4.464686E-01
  4.430980E-01
  4.373247E-01
  4.377271E-01
  4.378570E-01
  4.413625E-01
  4.410498E-01
  4.436474E-01
  4.441828E-01
  4.474013E-01
  4.459736E-01
  4.471758E-01
  4.473246E-01
  4.517575E-01
  4.516929E-01
  4.521009E-01
  4.489860E-01
  4.503046E-01
  4.494975E-01
  4.441028E-01
  4.425828E-01
  4.460401E-01
  4.424277E-01
  4.451263E-01
  4.426101E-01
  4.462195E-01
  4.419040E-01
  4.419623E-01
  4.367998E-01
  4.405806E-01
  4.400166E-01
  4.452551E-01
  4.437657E-01
  4.479394E-01
  4.443883E-01
  4.448825E-01
  4.385272E-01
  4.390117E-01
  4.351194E-01
  4.403399E-01
  4.424922E-01
  4.504992E-01
  4.484731E-01
  4.490442E-01
  4.433638E-01
  4.464959E-01
  4.459292E-01
  4.507466E-01
  4.460227E-01
  4.459197E-01
  4.423343E-01
  4.478285E-01
  4.461714E-01
  4.474308E-01
  4.416656E-01
  4.438876E-01
  4.413592E-01
  4.443027E-01
  4.404400E-01
  4.436166E-01
  4.421532E-01
  4.470834E-01
  4.447426E-01
  4.468872E-01
  4.418424E-01
  4.432509E-01
  4.396382E-01
  4.425391E-01