# vtk DataFile Version 2.0
title
ASCII
DATASET STRUCTURED_GRID
DIMENSIONS   64   64    1
POINTS   4096  float
  0.000000E+00  0.000000E+00  0.000000E+00
  0.000000E+00  3.906250E-01  0.000000E+00
  0.000000E+00  7.812500E-01  0.000000E+00
  0.000000E+00  1.171875E+00  0.000000E+00
  0.000000E+00  1.562500E+00  0.000000E+00
  0.000000E+00  1.953125E+00  0.000000E+00
  0.000000E+00  2.343750E+00  0.000000E+00
  0.000000E+00  2.734375E+00  0.000000E+00
  0.000000E+00  3.125000E+00  0.000000E+00
  0.000000E+00  3.515625E+00  0.000000E+00
  0.000000E+00  3.906250E+00  0.000000E+00
  0.000000E+00  4.296875E+00  0.000000E+00
  0.000000E+00  4.687500E+00  0.000000E+00
  0.000000E+00  5.078125E+00  0.000000E+00
  0.000000E+00  5.468750E+00  0.000000E+00
  0.000000E+00  5.859375E+00  0.000000E+00
  0.000000E+00  6.250000E+00  0.000000E+00
  0.000000E+00  6.640625E+00  0.000000E+00
  0.000000E+00  7.031250E+00  0.000000E+00
  0.000000E+00  7.421875E+00  0.000000E+00
  0.000000E+00  7.812500E+00  0.000000E+00
  0.000000E+00  8.203125E+00  0.000000E+00
  0.000000E+00  8.593750E+00  0.000000E+00
  0.000000E+00  8.984375E+00  0.000000E+00
  0.000000E+00  9.375000E+00  0.000000E+00
  0.000000E+00  9.765625E+00  0.000000E+00
  0.000000E+00  1.015625E+01  0.000000E+00
  0.000000E+00  1.054688E+01  0.000000E+00
  0.000000E+00  1.093750E+01  0.000000E+00
  0.000000E+00  1.132812E+01  0.000000E+00
  0.000000E+00  1.171875E+01  0.000000E+00
  0.000000E+00  1.210938E+01  0.000000E+00
  0.000000E+00  1.250000E+01  0.000000E+00
  0.000000E+00  1.289062E+01  0.000000E+00
  0.000000E+00  1.328125E+01  0.000000E+00
  0.000000E+00  1.367188E+01  0.000000E+00
  0.000000E+00  1.406250E+01  0.000000E+00
  0.000000E+00  1.445312E+01  0.000000E+00
  0.000000E+00  1.484375E+01  0.000000E+00
  0.000000E+00  1.523438E+01  0.000000E+00
  0.000000E+00  1.562500E+01  0.000000E+00
  0.000000E+00  1.601562E+01  0.000000E+00
  0.000000E+00  1.640625E+01  0.000000E+00
  0.000000E+00  1.679688E+01  0.000000E+00
  0.000000E+00  1.718750E+01  0.000000E+00
  0.000000E+00  1.757812E+01  0.000000E+00
  0.000000E+00  1.796875E+01  0.000000E+00
  0.000000E+00  1.835938E+01  0.000000E+00
  0.000000E+00  1.875000E+01  0.000000E+00
  0.000000E+00  1.914062E+01  0.000000E+00
  0.000000E+00  1.953125E+01  0.000000E+00
  0.000000E+00  1.992188E+01  0.000000E+00
  0.000000E+00  2.031250E+01  0.000000E+00
  0.000000E+00  2.070312E+01  0.000000E+00
  0.000000E+00  2.109375E+01  0.000000E+00
  0.000000E+00  2.148438E+01  0.000000E+00
  0.000000E+00  2.187500E+01  0.000000E+00
  0.000000E+00  2.226562E+01  0.000000E+00
  0.000000E+00  2.265625E+01  0.000000E+00
  0.000000E+00  2.304688E+01  0.000000E+00
  0.000000E+00  2.343750E+01  0.000000E+00
  0.000000E+00  2.382812E+01  0.000000E+00
  0.000000E+00  2.421875E+01  0.000000E+00
  0.000000E+00  2.460938E+01  0.000000E+00
  3.906250E-01  0.000000E+00  0.000000E+00
  3.906250E-01  3.906250E-01  0.000000E+00
  3.906250E-01  7.812500E-01  0.000000E+00
  3.906250E-01  1.171875E+00  0.000000E+00
  3.906250E-01  1.562500E+00  0.000000E+00
  3.906250E-01  1.953125E+00  0.000000E+00
  3.906250E-01  2.343750E+00  0.000000E+00
  3.906250E-01  2.734375E+00  0.000000E+00
  3.906250E-01  3.125000E+00  0.000000E+00
  3.906250E-01  3.515625E+00  0.000000E+00
  3.906250E-01  3.906250E+00  0.000000E+00
  3.906250E-01  4.296875E+00  0.000000E+00
  3.906250E-01  4.687500E+00  0.000000E+00
  3.906250E-01  5.078125E+00  0.000000E+00
  3.906250E-01  5.468750E+00  0.000000E+00
  3.906250E-01  5.859375E+00  0.000000E+00
  3.906250E-01  6.250000E+00  0.000000E+00
  3.906250E-01  6.640625E+00  0.000000E+00
  3.906250E-01  7.031250E+00  0.000000E+00
  3.906250E-01  7.421875E+00  0.000000E+00
  3.906250E-01  7.812500E+00  0.000000E+00
  3.906250E-01  8.203125E+00  0.000000E+00
  3.906250E-01  8.593750E+00  0.000000E+00
  3.906250E-01  8.984375E+00  0.000000E+00
  3.906250E-01  9.375000E+00  0.000000E+00
  3.906250E-01  9.765625E+00  0.000000E+00
  3.906250E-01  1.015625E+01  0.000000E+00
  3.906250E-01  1.054688E+01  0.000000E+00
  3.906250E-01  1.093750E+01  0.000000E+00
  3.906250E-01  1.132812E+01  0.000000E+00
  3.906250E-01  1.171875E+01  0.000000E+00
  3.906250E-01  1.210938E+01  0.000000E+00
  3.906250E-01  1.250000E+01  0.000000E+00
  3.906250E-01  1.289062E+01  0.000000E+00
  3.906250E-01  1.328125E+01  0.000000E+00
  3.906250E-01  1.367188E+01  0.000000E+00
  3.906250E-01  1.406250E+01  0.000000E+00
  3.906250E-01  1.445312E+01  0.000000E+00
  3.906250E-01  1.484375E+01  0.000000E+00
  3.906250E-01  1.523438E+01  0.000000E+00
  3.906250E-01  1.562500E+01  0.000000E+00
  3.906250E-01  1.601562E+01  0.000000E+00
  3.906250E-01  1.640625E+01  0.000000E+00
  3.906250E-01  1.679688E+01  0.000000E+00
  3.906250E-01  1.718750E+01  0.000000E+00
  3.906250E-01  1.757812E+01  0.000000E+00
  3.906250E-01  1.796875E+01  0.000000E+00
  3.906250E-01  1.835938E+01  0.000000E+00
  3.906250E-01  1.875000E+01  0.000000E+00
  3.906250E-01  1.914062E+01  0.000000E+00
  3.906250E-01  1.953125E+01  0.000000E+00
  3.906250E-01  1.992188E+01  0.000000E+00
  3.906250E-01  2.031250E+01  0.000000E+00
  3.906250E-01  2.070312E+01  0.000000E+00
  3.906250E-01  2.109375E+01  0.000000E+00
  3.906250E-01  2.148438E+01  0.000000E+00
  3.906250E-01  2.187500E+01  0.000000E+00
  3.906250E-01  2.226562E+01  0.000000E+00
  3.906250E-01  2.265625E+01  0.000000E+00
  3.906250E-01  2.304688E+01  0.000000E+00
  3.906250E-01  2.343750E+01  0.000000E+00
  3.906250E-01  2.382812E+01  0.000000E+00
  3.906250E-01  2.421875E+01  0.000000E+00
  3.906250E-01  2.460938E+01  0.000000E+00
  7.812500E-01  0.000000E+00  0.000000E+00
  7.812500E-01  3.906250E-01  0.000000E+00
  7.812500E-01  7.812500E-01  0.000000E+00
  7.812500E-01  1.171875E+00  0.000000E+00
  7.812500E-01  1.562500E+00  0.000000E+00
  7.812500E-01  1.953125E+00  0.000000E+00
  7.812500E-01  2.343750E+00  0.000000E+00
  7.812500E-01  2.734375E+00  0.000000E+00
  7.812500E-01  3.125000E+00  0.000000E+00
  7.812500E-01  3.515625E+00  0.000000E+00
  7.812500E-01  3.906250E+00  0.000000E+00
  7.812500E-01  4.296875E+00  0.000000E+00
  7.812500E-01  4.687500E+00  0.000000E+00
  7.812500E-01  5.078125E+00  0.000000E+00
  7.812500E-01  5.468750E+00  0.000000E+00
  7.812500E-01  5.859375E+00  0.000000E+00
  7.812500E-01  6.250000E+00  0.000000E+00
  7.812500E-01  6.640625E+00  0.000000E+00
  7.812500E-01  7.031250E+00  0.000000E+00
  7.812500E-01  7.421875E+00  0.000000E+00
  7.812500E-01  7.812500E+00  0.000000E+00
  7.812500E-01  8.203125E+00  0.000000E+00
  7.812500E-01  8.593750E+00  0.000000E+00
  7.812500E-01  8.984375E+00  0.000000E+00
  7.812500E-01  9.375000E+00  0.000000E+00
  7.812500E-01  9.765625E+00  0.000000E+00
  7.812500E-01  1.015625E+01  0.000000E+00
  7.812500E-01  1.054688E+01  0.000000E+00
  7.812500E-01  1.093750E+01  0.000000E+00
  7.812500E-01  1.132812E+01  0.000000E+00
  7.812500E-01  1.171875E+01  0.000000E+00
  7.812500E-01  1.210938E+01  0.000000E+00
  7.812500E-01  1.250000E+01  0.000000E+00
  7.812500E-01  1.289062E+01  0.000000E+00
  7.812500E-01  1.328125E+01  0.000000E+00
  7.812500E-01  1.367188E+01  0.000000E+00
  7.812500E-01  1.406250E+01  0.000000E+00
  7.812500E-01  1.445312E+01  0.000000E+00
  7.812500E-01  1.484375E+01  0.000000E+00
  7.812500E-01  1.523438E+01  0.000000E+00
  7.812500E-01  1.562500E+01  0.000000E+00
  7.812500E-01  1.601562E+01  0.000000E+00
  7.812500E-01  1.640625E+01  0.000000E+00
  7.812500E-01  1.679688E+01  0.000000E+00
  7.812500E-01  1.718750E+01  0.000000E+00
  7.812500E-01  1.757812E+01  0.000000E+00
  7.812500E-01  1.796875E+01  0.000000E+00
  7.812500E-01  1.835938E+01  0.000000E+00
  7.812500E-01  1.875000E+01  0.000000E+00
  7.812500E-01  1.914062E+01  0.000000E+00
  7.812500E-01  1.953125E+01  0.000000E+00
  7.812500E-01  1.992188E+01  0.000000E+00
  7.812500E-01  2.031250E+01  0.000000E+00
  7.812500E-01  2.070312E+01  0.000000E+00
  7.812500E-01  2.109375E+01  0.000000E+00
  7.812500E-01  2.148438E+01  0.000000E+00
  7.812500E-01  2.187500E+01  0.000000E+00
  7.812500E-01  2.226562E+01  0.000000E+00
  7.812500E-01  2.265625E+01  0.000000E+00
  7.812500E-01  2.304688E+01  0.000000E+00
  7.812500E-01  2.343750E+01  0.000000E+00
  7.812500E-01  2.382812E+01  0.000000E+00
  7.812500E-01  2.421875E+01  0.000000E+00
  7.812500E-01  2.460938E+01  0.000000E+00
  1.171875E+00  0.000000E+00  0.000000E+00
  1.171875E+00  3.906250E-01  0.000000E+00
  1.171875E+00  7.812500E-01  0.000000E+00
  1.171875E+00  1.171875E+00  0.000000E+00
  1.171875E+00  1.562500E+00  0.000000E+00
  1.171875E+00  1.953125E+00  0.000000E+00
  1.171875E+00  2.343750E+00  0.000000E+00
  1.171875E+00  2.734375E+00  0.000000E+00
  1.171875E+00  3.125000E+00  0.000000E+00
  1.171875E+00  3.515625E+00  0.000000E+00
  1.171875E+00  3.906250E+00  0.000000E+00
  1.171875E+00  4.296875E+00  0.000000E+00
  1.171875E+00  4.687500E+00  0.000000E+00
  1.171875E+00  5.078125E+00  0.000000E+00
  1.171875E+00  5.468750E+00  0.000000E+00
  1.171875E+00  5.859375E+00  0.000000E+00
  1.171875E+00  6.250000E+00  0.000000E+00
  1.171875E+00  6.640625E+00  0.000000E+00
  1.171875E+00  7.031250E+00  0.000000E+00
  1.171875E+00  7.421875E+00  0.000000E+00
  1.171875E+00  7.812500E+00  0.000000E+00
  1.171875E+00  8.203125E+00  0.000000E+00
  1.171875E+00  8.593750E+00  0.000000E+00
  1.171875E+00  8.984375E+00  0.000000E+00
  1.171875E+00  9.375000E+00  0.000000E+00
  1.171875E+00  9.765625E+00  0.000000E+00
  1.171875E+00  1.015625E+01  0.000000E+00
  1.171875E+00  1.054688E+01  0.000000E+00
  1.171875E+00  1.093750E+01  0.000000E+00
  1.171875E+00  1.132812E+01  0.000000E+00
  1.171875E+00  1.171875E+01  0.000000E+00
  1.171875E+00  1.210938E+01  0.000000E+00
  1.171875E+00  1.250000E+01  0.000000E+00
  1.171875E+00  1.289062E+01  0.000000E+00
  1.171875E+00  1.328125E+01  0.000000E+00
  1.171875E+00  1.367188E+01  0.000000E+00
  1.171875E+00  1.406250E+01  0.000000E+00
  1.171875E+00  1.445312E+01  0.000000E+00
[...]
POINT_DATA   4096
SCALARS CON  float  1
LOOKUP_TABLE default
  4.274897E-01
  4.262678E-01
  4.315684E-01
  4.300675E-01
  4.305190E-01
  4.242818E-01
  4.252956E-01
  4.244622E-01
  4.299353E-01
  4.281577E-01
  4.289174E-01
  4.238028E-01
  4.251874E-01
  4.226540E-01
  4.256135E-01
  4.236228E-01
  4.277578E-01
  4.273099E-01
  4.310350E-01
  4.272359E-01
  4.270842E-01
  4.218986E-01
  4.230350E-01
  4.197759E-01
  4.216723E-01
  4.181723E-01
  4.205305E-01
  4.198020E-01
  4.264449E-01
  4.277210E-01
  4.308814E-01
  4.251116E-01
  4.243232E-01
  4.216405E-01
  4.271648E-01
  4.270254E-01
  4.289813E-01
  4.233010E-01
  4.230153E-01
  4.193472E-01
  4.221993E-01
  4.198689E-01
  4.220901E-01
  4.189100E-01
  4.212105E-01
  4.188232E-01
  4.226133E-01
  4.231897E-01
  4.305067E-01
  4.311482E-01
  4.325235E-01
  4.247777E-01
  4.223755E-01
  4.183802E-01
  4.238132E-01
  4.269374E-01
  4.354602E-01
  4.357730E-01
  4.370492E-01
  4.306658E-01
  4.303762E-01
  4.268769E-01
  4.291365E-01
  4.255109E-01
  4.275495E-01
  4.276279E-01
  4.346869E-01
  4.355192E-01
  4.351979E-01
  4.264509E-01
  4.235736E-01
  4.211702E-01
  4.262460E-01
  4.260812E-01
  4.280265E-01
  4.250862E-01
  4.275546E-01
  4.256042E-01
  4.265184E-01
  4.224896E-01
  4.249350E-01
  4.259066E-01
  4.316679E-01
  4.300641E-01
  4.292423E-01
  4.227745E-01
  4.223401E-01
  4.201268E-01
  4.235859E-01
  4.221443E-01
  4.240794E-01
  4.219071E-01
  4.256878E-01
  4.260683E-01
  4.296042E-01
  4.262217E-01
  4.260812E-01
  4.226879E-01
  4.252865E-01
  4.235833E-01
  4.250962E-01
  4.216779E-01
  4.235014E-01
  4.218432E-01
  4.239152E-01
  4.198951E-01
  4.194659E-01
  4.157492E-01
  4.180309E-01
  4.168892E-01
  4.210137E-01
  4.229438E-01
  4.312393E-01
  4.335002E-01
  4.346006E-01
  4.264069E-01
  4.231019E-01
  4.205197E-01
  4.275639E-01
  4.321774E-01
  4.391063E-01
  4.369724E-01
  4.351771E-01
  4.280818E-01
  4.278472E-01
  4.260258E-01
  4.289222E-01
  4.259891E-01
  4.209308E-01
  4.265528E-01
  4.348333E-01
  4.371950E-01
  4.349534E-01
  4.273116E-01
  4.234511E-01
  4.221702E-01
  4.254897E-01
  4.266324E-01
  4.281557E-01
  4.271727E-01
  4.282346E-01
  4.271670E-01
  4.271684E-01
  4.251944E-01
  4.263758E-01
  4.272544E-01
  4.301118E-01
  4.293966E-01
  4.285242E-01
  4.249256E-01
  4.237812E-01
  4.219929E-01
  4.229461E-01
  4.220557E-01
  4.225483E-01
  4.211438E-01
  4.223287E-01
  4.221404E-01
  4.230805E-01
  4.209461E-01
  4.209517E-01
  4.212498E-01
  4.252904E-01
  4.267648E-01
  4.273117E-01
  4.238644E-01
  4.225840E-01
  4.209761E-01
  4.216964E-01
  4.193304E-01
  4.175399E-01
  4.143059E-01
  4.149518E-01
  4.160327E-01
  4.207607E-01
  4.251121E-01
  4.317756E-01
  4.341885E-01
  4.335725E-01
  4.272555E-01
  4.233828E-01
  4.217663E-01
  4.263786E-01
  4.312879E-01
  4.371683E-01
  4.374033E-01
  4.347280E-01
  4.272142E-01
  4.220264E-01
  4.174588E-01
  4.170614E-01
  4.167004E-01
  4.205380E-01
  4.275406E-01
  4.337853E-01
  4.378185E-01
  4.329989E-01
  4.259100E-01
  4.189001E-01
  4.188268E-01
  4.207303E-01
  4.249808E-01
  4.264546E-01
  4.292109E-01
  4.297340E-01
  4.305187E-01
  4.273731E-01
  4.255852E-01
  4.240722E-01
  4.270764E-01
  4.289640E-01
  4.308267E-01
  4.284652E-01
  4.270480E-01
  4.247550E-01
  4.257784E-01
  4.257405E-01
  4.269335E-01
  4.248328E-01
  4.233855E-01
  4.205337E-01
  4.213606E-01
  4.221786E-01
  4.249343E-01
  4.245691E-01
  4.247930E-01
  4.229504E-01
  4.231084E-01
  4.216659E-01
  4.227063E-01
  4.231882E-01
  4.258156E-01
  4.247444E-01
  4.226976E-01
  4.182235E-01
  4.179909E-01
  4.189491E-01
  4.224665E-01
  4.232111E-01
  4.256605E-01
  4.274214E-01
  4.306770E-01
  4.289890E-01
  4.260116E-01
  4.218789E-01
  4.237219E-01
  4.277771E-01
  4.343774E-01
  4.363812E-01
  4.358449E-01
  4.299295E-01
  4.248357E-01
  4.195247E-01
  4.184248E-01
  4.170863E-01
  4.185896E-01
  4.178916E-01
  4.274330E-01
  4.307865E-01
  4.344991E-01
  4.273385E-01
  4.235186E-01
  4.168094E-01
  4.190679E-01
  4.186961E-01
  4.244121E-01
  4.247691E-01
  4.295881E-01
  4.276707E-01
  4.293976E-01
  4.250716E-01
  4.265932E-01
  4.242421E-01
  4.280634E-01
  4.264702E-01
  4.293997E-01
  4.265736E-01
  4.288083E-01
  4.252659E-01
  4.262648E-01
  4.219277E-01
  4.235003E-01
  4.203139E-01
  4.220423E-01
  4.183124E-01
  4.207016E-01
  4.193645E-01
  4.237174E-01
  4.219304E-01
  4.245918E-01
  4.222565E-01
  4.255109E-01
  4.229873E-01
  4.250225E-01
  4.221098E-01
  4.250208E-01
  4.220162E-01
  4.227228E-01
  4.181215E-01
  4.211587E-01
  4.218362E-01
  4.280008E-01
  4.263643E-01
  4.276919E-01
  4.237487E-01
  4.260216E-01
  4.228995E-01
  4.240669E-01
  4.201459E-01
  4.231778E-01
  4.229373E-01
  4.287987E-01
  4.288495E-01
  4.323882E-01
  4.280750E-01
  4.267861E-01
  4.193737E-01
  4.178510E-01
  4.129700E-01
  4.161974E-01
  4.226381E-01
  4.287262E-01
  4.287842E-01
  4.320425E-01
  4.248840E-01
  4.219284E-01
  4.144127E-01
  4.163547E-01
  4.150840E-01
  4.213799E-01
  4.219284E-01
  4.280468E-01
  4.262760E-01
  4.283552E-01
  4.228629E-01
  4.243015E-01
  4.220670E-01
  4.280432E-01
  4.278180E-01
  4.319592E-01
  4.280160E-01
  4.293224E-01
  4.240894E-01
  4.248603E-01
  4.200026E-01
  4.225629E-01
  4.199238E-01
  4.230246E-01
  4.194728E-01
  4.233287E-01
  4.235419E-01
  4.303855E-01
  4.279669E-01
  4.278689E-01
  4.206653E-01
  4.217540E-01
  4.193991E-01
  4.246969E-01
  4.241959E-01
  4.288042E-01
  4.245917E-01
  4.242795E-01
  4.190488E-01
  4.245439E-01
  4.275106E-01
  4.350027E-01
  4.306031E-01
  4.283873E-01
  4.208061E-01
  4.225487E-01
  4.197991E-01
  4.226566E-01
  4.190820E-01
  4.228822E-01
  4.219820E-01
  4.270750E-01
  4.245349E-01
  4.269527E-01
  4.231515E-01
  4.261329E-01
  4.233127E-01
  4.262513E-01
  4.223585E-01
  4.247495E-01
  4.219002E-01
  4.265681E-01
  4.260826E-01
  4.280995E-01
  4.233134E-01
  4.228325E-01
  4.185931E-01
  4.201187E-01
  4.180254E-01
  4.218926E-01
  4.220264E-01
  4.262851E-01
  4.239114E-01
  4.247988E-01
  4.214782E-01
  4.248270E-01
  4.252704E-01
  4.306795E-01
  4.300729E-01
  4.324713E-01
  4.289759E-01
  4.294094E-01
  4.238094E-01
  4.215866E-01
  4.151799E-01
  4.163064E-01
  4.159128E-01
  4.210637E-01
  4.205399E-01
  4.243579E-01
  4.244872E-01
  4.293765E-01
  4.272117E-01
  4.273672E-01
  4.231670E-01
  4.259765E-01
  4.253491E-01
  4.286311E-01
  4.258974E-01
  4.270954E-01
  4.228177E-01
  4.227262E-01
  4.193101E-01
  4.241695E-01
  4.274772E-01
  4.346061E-01
  4.320941E-01
  4.298525E-01
  4.224809E-01
  4.225372E-01
  4.203121E-01
  4.230148E-01
  4.201640E-01
  4.216247E-01
  4.187651E-01
  4.211180E-01
  4.193614E-01
  4.230539E-01
  4.227358E-01
  4.270279E-01
  4.254092E-01
  4.267544E-01
  4.224007E-01
  4.234835E-01
  4.238973E-01
  4.244847E-01
  4.243952E-01
  4.269883E-01
  4.258411E-01
  4.256576E-01
  4.225445E-01
  4.223635E-01
  4.208134E-01
  4.229107E-01
  4.234585E-01
  4.262320E-01
  4.252179E-01
  4.252458E-01
  4.228067E-01
  4.245257E-01
  4.262956E-01
  4.318359E-01
  4.337808E-01
  4.351572E-01
  4.312646E-01
  4.286372E-01
  4.235338E-01
  4.212048E-01
  4.175928E-01
  4.187419E-01
  4.197472E-01
  4.234867E-01
  4.237448E-01
  4.265953E-01
  4.288378E-01
  4.338806E-01
  4.331796E-01
  4.307581E-01
  4.252158E-01
  4.251215E-01
  4.256459E-01
  4.291826E-01
  4.290690E-01
  4.297593E-01
  4.262717E-01
  4.242600E-01
  4.213134E-01
  4.245246E-01
  4.280706E-01
  4.327137E-01
  4.304643E-01
  4.275843E-01
  4.231127E-01
  4.238780E-01
  4.234991E-01
  4.245560E-01
  4.222019E-01
  4.230263E-01
  4.227659E-01
  4.247592E-01
  4.226890E-01
  4.221446E-01
  4.204989E-01
  4.237832E-01
  4.260129E-01
  4.296717E-01
  4.283373E-01
  4.273845E-01
  4.188512E-01
  4.203892E-01
  4.220104E-01
  4.251231E-01
  4.265400E-01
  4.285512E-01
  4.284841E-01
  4.286184E-01
  4.269987E-01
  4.272038E-01
  4.270146E-01
  4.277624E-01
  4.260093E-01
  4.250109E-01
  4.240527E-01
  4.264339E-01
  4.289346E-01
  4.324451E-01
  4.330376E-01
  4.326857E-01
  4.295858E-01
  4.273415E-01
  4.238333E-01
  4.214704E-01
  4.186318E-01
  4.192955E-01
  4.211549E-01
  4.246001E-01
  4.251858E-01
  4.259355E-01
  4.262410E-01
  4.286494E-01
  4.289090E-01
  4.290104E-01
  4.282978E-01
  4.304885E-01
  4.315512E-01
  4.316134E-01
  4.281151E-01
  4.255514E-01
  4.229577E-01
  4.227945E-01
  4.221756E-01
  4.235608E-01
  4.243191E-01
  4.259810E-01
  4.251957E-01
  4.249352E-01
  4.241906E-01
  4.259571E-01
  4.265060E-01
  4.268206E-01
  4.246866E-01
  4.242898E-01
  4.241692E-01
  4.259162E-01
  4.254648E-01
  4.249256E-01
  4.229867E-01
  4.232396E-01
  4.229660E-01
  4.234121E-01
  4.214500E-01
  4.202814E-01
  4.194375E-01
  4.193344E-01
  4.212598E-01
  4.253624E-01
  4.278557E-01
  4.292990E-01
  4.286007E-01
  4.283092E-01
  4.274745E-01
  4.280106E-01
  4.282473E-01
  4.291023E-01
  4.281658E-01
  4.269491E-01
  4.247924E-01
  4.246319E-01
  4.257360E-01
  4.291773E-01
  4.313551E-01
  4.317440E-01
  4.285593E-01
  4.253803E-01
  4.227021E-01
  4.226803E-01
  4.233604E-01
  4.259447E-01
  4.280189E-01
  4.294978E-01
  4.279434E-01
  4.265838E-01
  4.262761E-01
  4.285893E-01
  4.294136E-01
  4.288596E-01
  4.268891E-01
  4.272257E-01
  4.279700E-01
  4.286696E-01
  4.268177E-01
  4.250141E-01
  4.230182E-01
  4.230003E-01
  4.233182E-01
  4.248617E-01
  4.247946E-01
  4.239087E-01
  4.215244E-01
  4.214119E-01
  4.232646E-01
  4.272907E-01
  4.288956E-01
  4.282320E-01
  4.256714E-01
  4.260864E-01
  4.287004E-01
  4.322708E-01
  4.316658E-01
  4.281216E-01
  4.231765E-01
  4.216478E-01
  4.223202E-01
  4.244894E-01
  4.241110E-01
  4.223436E-01
  4.167452E-01
  4.183626E-01
  4.204917E-01
  4.239526E-01
  4.260070E-01
  4.283204E-01
  4.287623E-01
  4.291297E-01
  4.279794E-01
  4.282739E-01
  4.283086E-01
  4.289232E-01
  4.271444E-01
  4.254491E-01
  4.234351E-01
  4.239696E-01
  4.249349E-01
  4.274615E-01
  4.285267E-01
  4.290100E-01
  4.267347E-01
  4.246035E-01
  4.219590E-01
  4.215297E-01
  4.218554E-01
  4.250011E-01
  4.280062E-01
  4.304715E-01
  4.287393E-01
  4.257137E-01
  4.221634E-01
  4.216695E-01
  4.218814E-01
  4.238546E-01
  4.255790E-01
  4.286680E-01
  4.294896E-01
  4.282254E-01
  4.233871E-01
  4.196487E-01
  4.177154E-01
  4.199028E-01
  4.223826E-01
  4.245832E-01
  4.235039E-01
  4.221436E-01
  4.206766E-01
  4.224577E-01
  4.252390E-01
  4.289784E-01
  4.294865E-01
  4.281704E-01
  4.249484E-01
  4.244389E-01
  4.257887E-01
  4.294209E-01
  4.306950E-01
  4.302360E-01
  4.271556E-01
  4.252607E-01
  4.232230E-01
  4.222044E-01
  4.196381E-01
  4.180371E-01
  4.202736E-01
  4.204666E-01
  4.213548E-01
  4.248397E-01
  4.260429E-01
  4.271771E-01
  4.254633E-01
  4.250182E-01
  4.236183E-01
  4.248892E-01
  4.255028E-01
  4.275315E-01
  4.265869E-01
  4.255083E-01
  4.222691E-01
  4.217645E-01
  4.221425E-01
  4.263043E-01
  4.291912E-01
  4.313638E-01
  4.285489E-01
  4.253215E-01
  4.212158E-01
  4.211568E-01
  4.222752E-01
  4.268042E-01
  4.298793E-01
  4.323961E-01
  4.300738E-01
  4.274862E-01
  4.242158E-01
  4.245105E-01
  4.239575E-01
  4.242227E-01
  4.225959E-01
  4.234955E-01
  4.237514E-01
  4.249689E-01
  4.229865E-01
  4.216180E-01
  4.194122E-01
  4.206966E-01
  4.222224E-01
  4.255329E-01
  4.256596E-01
  4.253859E-01
  4.232710E-01
  4.245285E-01
  4.262555E-01
  4.294090E-01
  4.283252E-01
  4.260164E-01
  4.220381E-01
  4.224949E-01
  4.247197E-01
  4.293501E-01
  4.302726E-01
  4.299896E-01
  4.272846E-01
  4.273308E-01
  4.270200E-01
  4.279072E-01
  4.255937E-01
  4.235491E-01
  4.186073E-01
  4.212225E-01
  4.216030E-01
  4.245204E-01
  4.247324E-01
  4.271417E-01
  4.257992E-01
  4.257456E-01
  4.228144E-01
  4.237426E-01
  4.235015E-01
  4.257394E-01
  4.237669E-01
  4.233028E-01
  4.209578E-01
  4.230427E-01
  4.239434E-01
  4.278569E-01
  4.287235E-01
  4.310367E-01
  4.288509E-01
  4.273985E-01
  4.224054E-01
  4.206934E-01
  4.185413E-01
  4.217300E-01
  4.241299E-01
  4.286537E-01
  4.279522E-01
  4.272046E-01
  4.230721E-01
  4.226535E-01
  4.211029E-01
  4.230753E-01
  4.230156E-01
  4.258592E-01
  4.254448E-01
  4.258925E-01
  4.220592E-01
  4.207538E-01
  4.185085E-01
  4.208956E-01
  4.215666E-01
  4.242861E-01
  4.234541E-01
  4.250654E-01
  4.247303E-01
  4.275870E-01
  4.273994E-01
  4.282936E-01
  4.247665E-01
  4.230315E-01
  4.194118E-01
  4.201414E-01
  4.200977E-01
  4.238602E-01
  4.253881E-01
  4.291812E-01
  4.294146E-01
  4.307781E-01
  4.276137E-01
  4.255363E-01
  4.207063E-01
  4.199402E-01
  4.223814E-01
  4.235432E-01
  4.229417E-01
  4.255717E-01
  4.256991E-01
  4.271730E-01
  4.245817E-01
  4.236291E-01
  4.206643E-01
  4.216005E-01
  4.214120E-01
  4.239602E-01
  4.230708E-01
  4.235445E-01
  4.214502E-01
  4.229087E-01
  4.233076E-01
  4.271610E-01
  4.286640E-01
  4.316849E-01
  4.301402E-01
  4.288890E-01
  4.241142E-01
  4.224683E-01
  4.200506E-01
  4.219635E-01
  4.227008E-01
  4.260622E-01
  4.259259E-01
  4.271873E-01
  4.258702E-01
  4.275287E-01
  4.263383E-01
  4.262321E-01
  4.227178E-01
  4.223888E-01
  4.211792E-01
  4.235214E-01
  4.234835E-01
  4.254457E-01
  4.242170E-01
  4.248840E-01
  4.230766E-01
  4.244102E-01
  4.239195E-01
  4.259478E-01
  4.250381E-01
  4.261838E-01
  4.244378E-01
  4.244414E-01
  4.211211E-01
  4.203652E-01
  4.187091E-01
  4.216456E-01
  4.231563E-01
  4.265168E-01
  4.260633E-01
  4.274014E-01
  4.263564E-01
  4.278487E-01
  4.262570E-01
  4.264004E-01
  4.238535E-01
  4.241395E-01
  4.227192E-01
  4.242707E-01
  4.236358E-01
  4.238166E-01
  4.243852E-01
  4.263389E-01
  4.265829E-01
  4.258896E-01
  4.235713E-01
  4.226670E-01
  4.220701E-01
  4.224142E-01
  4.214852E-01
  4.216309E-01
  4.225359E-01
  4.253921E-01
  4.268326E-01
  4.274378E-01
  4.268137E-01
  4.280194E-01
  4.290964E-01
  4.296215E-01
  4.268195E-01
  4.230644E-01
  4.187957E-01
  4.172349E-01
  4.174658E-01
  4.202741E-01
  4.222993E-01
  4.235636E-01
  4.226861E-01
  4.226241E-01
  4.227442E-01
  4.242811E-01
  4.249361E-01
  4.257431E-01
  4.249199E-01
  4.242140E-01
  4.229276E-01
  4.234488E-01
  4.240166E-01
  4.249468E-01
  4.238766E-01
  4.230004E-01
  4.221474E-01
  4.232899E-01
  4.238729E-01
  4.241452E-01
  4.222756E-01
  4.206504E-01
  4.189926E-01
  4.197791E-01
  4.214003E-01
  4.241331E-01
  4.249717E-01
  4.252252E-01
  4.244597E-01
  4.250865E-01
  4.249577E-01
  4.243115E-01
  4.213858E-01
  4.192925E-01
  4.184320E-01
  4.206520E-01
  4.301989E-01
  4.277139E-01
  4.256746E-01
  4.235354E-01
  4.245081E-01
  4.244625E-01
  4.252053E-01
  4.238801E-01
  4.238490E-01
  4.225098E-01
  4.227213E-01
  4.215939E-01
  4.221714E-01
  4.220724E-01
  4.244645E-01
  4.258740E-01
  4.278834E-01
  4.271891E-01
  4.278069E-01
  4.279727E-01
  4.299165E-01
  4.290562E-01
  4.276087E-01
  4.236244E-01
  4.212796E-01
  4.185793E-01
  4.188973E-01
  4.193104E-01
  4.216187E-01
  4.218481E-01
  4.230311E-01
  4.233052E-01
  4.255627E-01
  4.257186E-01
  4.257855E-01
  4.234354E-01
  4.227760E-01
  4.218440E-01
  4.237238E-01
  4.248847E-01
  4.267656E-01
  4.255775E-01
  4.250043E-01
  4.238596E-01
  4.253491E-01
  4.250475E-01
  4.243717E-01
  4.209697E-01
  4.194989E-01
  4.181962E-01
  4.197838E-01
  4.211357E-01
  4.250780E-01
  4.279532E-01
  4.306867E-01
  4.288845E-01
  4.260562E-01
  4.214302E-01
  4.194146E-01
  4.174551E-01
  4.184817E-01
  4.201022E-01
  4.249226E-01
  4.281487E-01
  4.324658E-01
  4.300375E-01
  4.267933E-01
  4.224333E-01
  4.225190E-01
  4.228101E-01
  4.252970E-01
  4.251491E-01
  4.259828E-01
  4.244583E-01
  4.242615E-01
  4.215639E-01
  4.207932E-01
  4.200490E-01
  4.240297E-01
  4.274839E-01
  4.308459E-01
  4.289479E-01
  4.275465E-01
  4.258842E-01
  4.279767E-01
  4.277909E-01
  4.270082E-01
  4.222416E-01
  4.190747E-01
  4.156888E-01
  4.167014E-01
  4.179553E-01
  4.210232E-01
  4.202251E-01
  4.196637E-01
  4.182905E-01
  4.215737E-01
  4.248169E-01
  4.290230E-01
  4.286453E-01
  4.275313E-01
  4.235698E-01
  4.222794E-01
  4.208673E-01
  4.224881E-01
  4.223739E-01
  4.238782E-01
  4.238468E-01
  4.260028E-01
  4.254603E-01
  4.247776E-01
  4.208843E-01
  4.194838E-01
  4.184017E-01
  4.212706E-01
  4.235053E-01
  4.276450E-01
  4.286040E-01
  4.288517E-01
  4.248771E-01
  4.222222E-01
  4.188540E-01
  4.183964E-01
  4.163769E-01
  4.168424E-01
  4.178082E-01
  4.236242E-01
  4.285025E-01
  4.370455E-01
  4.327166E-01
  4.280639E-01
  4.239308E-01
  4.229152E-01
  4.217702E-01
  4.219676E-01
  4.216475E-01
  4.229916E-01
  4.231514E-01
  4.234204E-01
  4.216204E-01
  4.207599E-01
  4.200238E-01
  4.222563E-01
  4.246122E-01
  4.273447E-01
  4.271093E-01
  4.267356E-01
  4.255759E-01
  4.261380E-01
  4.254447E-01
  4.249277E-01
  4.226494E-01
  4.213969E-01
  4.197978E-01
  4.206188E-01
  4.215740E-01
  4.233495E-01
  4.226406E-01
  4.225342E-01
  4.230926E-01
  4.268021E-01
  4.291897E-01
  4.298903E-01
  4.268057E-01
  4.242495E-01
  4.220501E-01
  4.226573E-01
  4.228480E-01
  4.234716E-01
  4.224970E-01
  4.236122E-01
  4.256507E-01
  4.290413E-01
  4.284867E-01
  4.251769E-01
  4.197318E-01
  4.178840E-01
  4.185212E-01
  4.220142E-01
  4.243447E-01
  4.271327E-01
  4.281379E-01
  4.285980E-01
  4.256489E-01
  4.223641E-01
  4.186037E-01
  4.176471E-01
  4.174107E-01
  4.201551E-01
  4.243000E-01
  4.312161E-01
  4.357978E-01
  4.323597E-01
  4.302170E-01
  4.271680E-01
  4.232659E-01
  4.222268E-01
  4.214250E-01
  4.221973E-01
  4.216836E-01
  4.223600E-01
  4.220546E-01
  4.225981E-01
  4.209580E-01
  4.197848E-01
  4.183949E-01
  4.204491E-01
  4.228129E-01
  4.252693E-01
  4.238764E-01
  4.221166E-01
  4.202322E-01
  4.217799E-01
  4.233021E-01
  4.250156E-01
  4.235163E-01
  4.219161E-01
  4.197782E-01
  4.209381E-01
  4.226927E-01
  4.250764E-01
  4.238979E-01
  4.226003E-01
  4.219124E-01
  4.254774E-01
  4.288308E-01
  4.311499E-01
  4.290949E-01
  4.265154E-01
  4.229879E-01
  4.217116E-01
  4.202859E-01
  4.207580E-01
  4.208394E-01
  4.231112E-01
  4.249680E-01
  4.273516E-01
  4.261918E-01
  4.236405E-01
  4.193123E-01
  4.179511E-01
  4.180827E-01
  4.210530E-01
  4.230759E-01
  4.254426E-01
  4.251522E-01
  4.243756E-01
  4.217856E-01
  4.215793E-01
  4.222504E-01
  4.247990E-01
  4.249359E-01
  4.249298E-01
  4.244276E-01
  4.272870E-01
  4.300765E-01
  4.304812E-01
  4.267904E-01
  4.265575E-01
  4.234999E-01
  4.243807E-01
  4.213533E-01
  4.214638E-01
  4.182950E-01
  4.194796E-01
  4.179975E-01
  4.205946E-01
  4.198109E-01
  4.223299E-01
  4.208943E-01
  4.226666E-01
  4.206448E-01
  4.217776E-01
  4.189019E-01
  4.195580E-01
  4.176334E-01
  4.208505E-01
  4.218646E-01
  4.264453E-01
  4.260708E-01
  4.275654E-01
  4.249873E-01
  4.269183E-01
  4.262873E-01
  4.287050E-01
  4.261952E-01
  4.272935E-01
  4.267575E-01
  4.309878E-01
  4.298357E-01
  4.287853E-01
  4.225662E-01
  4.215031E-01
  4.197662E-01
  4.231547E-01
  4.226350E-01
  4.244696E-01
  4.224144E-01
  4.250139E-01
  4.253343E-01
  4.285586E-01
  4.253736E-01
  4.231421E-01
  4.174617E-01
  4.177852E-01
  4.170864E-01
  4.208105E-01
  4.207672E-01
  4.240533E-01
  4.237575E-01
  4.266025E-01
  4.253086E-01
  4.276909E-01
  4.273798E-01
  4.310040E-01
  4.301074E-01
  4.314949E-01
  4.290795E-01
  4.309415E-01
  4.294333E-01
  4.236080E-01
  4.221374E-01
  4.254336E-01
  4.224166E-01
  4.249369E-01
  4.221370E-01
  4.246019E-01
  4.205472E-01
  4.214488E-01
  4.174668E-01
  4.205425E-01
  4.192506E-01
  4.237862E-01
  4.225447E-01
  4.264194E-01
  4.236101E-01
  4.245761E-01
  4.185217E-01
  4.183532E-01
  4.151272E-01
  4.206352E-01
  4.223228E-01
  4.284906E-01
  4.261442E-01
  4.272438E-01
  4.231188E-01
  4.266422E-01
  4.258630E-01
  4.295332E-01
  4.252999E-01
  4.260085E-01
  4.229320E-01
  4.272855E-01
  4.256077E-01
  4.274932E-01
  4.226479E-01
  4.239024E-01
  4.204916E-01
  4.228607E-01
  4.197725E-01
  4.230171E-01
  4.218406E-01
  4.266804E-01
  4.251477E-01
  4.276021E-01
  4.230458E-01
  4.236661E-01
  4.193443E-01
  4.215053E-01