# vtk DataFile Version 2.0
title
ASCII
DATASET STRUCTURED_GRID
DIMENSIONS   64   64    1
POINTS   4096  float
  0.000000E+00  0.000000E+00  0.000000E+00
  0.000000E+00  3.906250E-01  0.000000E+00
  0.000000E+00  7.812500E-01  0.000000E+00
  0.000000E+00  1.171875E+00  0.000000E+00
  0.000000E+00  1.562500E+00  0.000000E+00
  0.000000E+00  1.953125E+00  0.000000E+00
  0.000000E+00  2.343750E+00  0.000000E+00
  0.000000E+00  2.734375E+00  0.000000E+00
  0.000000E+00  3.125000E+00  0.000000E+00
  0.000000E+00  3.515625E+00  0.000000E+00
  0.000000E+00  3.906250E+00  0.000000E+00
  0.000000E+00  4.296875E+00  0.000000E+00
  0.000000E+00  4.687500E+00  0.000000E+00
  0.000000E+00  5.078125E+00  0.000000E+00
  0.000000E+00  5.468750E+00  0.000000E+00
  0.000000E+00  5.859375E+00  0.000000E+00
  0.000000E+00  6.250000E+00  0.000000E+00
  0.000000E+00  6.640625E+00  0.000000E+00
  0.000000E+00  7.031250E+00  0.000000E+00
  0.000000E+00  7.421875E+00  0.000000E+00
  0.000000E+00  7.812500E+00  0.000000E+00
  0.000000E+00  8.203125E+00  0.000000E+00
  0.000000E+00  8.593750E+00  0.000000E+00
  0.000000E+00  8.984375E+00  0.000000E+00
  0.000000E+00  9.375000E+00  0.000000E+00
  0.000000E+00  9.765625E+00  0.000000E+00
  0.000000E+00  1.015625E+01  0.000000E+00
  0.000000E+00  1.054688E+01  0.000000E+00
  0.000000E+00  1.093750E+01  0.000000E+00
  0.000000E+00  1.132812E+01  0.000000E+00
  0.000000E+00  1.171875E+01  0.000000E+00
  0.000000E+00  1.210938E+01  0.000000E+00
  0.000000E+00  1.250000E+01  0.000000E+00
  0.000000E+00  1.289062E+01  0.000000E+00
  0.000000E+00  1.328125E+01  0.000000E+00
  0.000000E+00  1.367188E+01  0.000000E+00
  0.000000E+00  1.406250E+01  0.000000E+00
  0.000000E+00  1.445312E+01  0.000000E+00
  0.000000E+00  1.484375E+01  0.000000E+00
  0.000000E+00  1.523438E+01  0.000000E+00
  0.000000E+00  1.562500E+01  0.000000E+00
  0.000000E+00  1.601562E+01  0.000000E+00
  0.000000E+00  1.640625E+01  0.000000E+00
  0.000000E+00  1.679688E+01  0.000000E+00
  0.000000E+00  1.718750E+01  0.000000E+00
  0.000000E+00  1.757812E+01  0.000000E+00
  0.000000E+00  1.796875E+01  0.000000E+00
  0.000000E+00  1.835938E+01  0.000000E+00
  0.000000E+00  1.875000E+01  0.000000E+00
  0.000000E+00  1.914062E+01  0.000000E+00
  0.000000E+00  1.953125E+01  0.000000E+00
  0.000000E+00  1.992188E+01  0.000000E+00
  0.000000E+00  2.031250E+01  0.000000E+00
  0.000000E+00  2.070312E+01  0.000000E+00
  0.000000E+00  2.109375E+01  0.000000E+00
  0.000000E+00  2.148438E+01  0.000000E+00
  0.000000E+00  2.187500E+01  0.000000E+00
  0.000000E+00  2.226562E+01  0.000000E+00
  0.000000E+00  2.265625E+01  0.000000E+00
  0.000000E+00  2.304688E+01  0.000000E+00
  0.000000E+00  2.343750E+01  0.000000E+00
  0.000000E+00  2.382812E+01  0.000000E+00
  0.000000E+00  2.421875E+01  0.000000E+00
  0.000000E+00  2.460938E+01  0.000000E+00
  3.906250E-01  0.000000E+00  0.000000E+00
  3.906250E-01  3.906250E-01  0.000000E+00
  3.906250E-01  7.812500E-01  0.000000E+00
  3.906250E-01  1.171875E+00  0.000000E+00
  3.906250E-01  1.562500E+00  0.000000E+00
  3.906250E-01  1.953125E+00  0.000000E+00
  3.906250E-01  2.343750E+00  0.000000E+00
  3.906250E-01  2.734375E+00  0.000000E+00
  3.906250E-01  3.125000E+00  0.000000E+00
  3.906250E-01  3.515625E+00  0.000000E+00
  3.906250E-01  3.906250E+00  0.000000E+00
  3.906250E-01  4.296875E+00  0.000000E+00
  3.906250E-01  4.687500E+00  0.000000E+00
  3.906250E-01  5.078125E+00  0.000000E+00
  3.906250E-01  5.468750E+00  0.000000E+00
  3.906250E-01  5.859375E+00  0.000000E+00
  3.906250E-01  6.250000E+00  0.000000E+00
  3.906250E-01  6.640625E+00  0.000000E+00
  3.906250E-01  7.031250E+00  0.000000E+00
  3.906250E-01  7.421875E+00  0.000000E+00
  3.906250E-01  7.812500E+00  0.000000E+00
  3.906250E-01  8.203125E+00  0.000000E+00
  3.906250E-01  8.593750E+00  0.000000E+00
  3.906250E-01  8.984375E+00  0.000000E+00
  3.906250E-01  9.375000E+00  0.000000E+00
  3.906250E-01  9.765625E+00  0.000000E+00
  3.906250E-01  1.015625E+01  0.000000E+00
  3.906250E-01  1.054688E+01  0.000000E+00
  3.906250E-01  1.093750E+01  0.000000E+00
  3.906250E-01  1.132812E+01  0.000000E+00
  3.906250E-01  1.171875E+01  0.000000E+00
  3.906250E-01  1.210938E+01  0.000000E+00
  3.906250E-01  1.250000E+01  0.000000E+00
  3.906250E-01  1.289062E+01  0.000000E+00
  3.906250E-01  1.328125E+01  0.000000E+00
  3.906250E-01  1.367188E+01  0.000000E+00
  3.906250E-01  1.406250E+01  0.000000E+00
  3.906250E-01  1.445312E+01  0.000000E+00
  3.906250E-01  1.484375E+01  0.000000E+00
  3.906250E-01  1.523438E+01  0.000000E+00
  3.906250E-01  1.562500E+01  0.000000E+00
  3.906250E-01  1.601562E+01  0.000000E+00
  3.906250E-01  1.640625E+01  0.000000E+00
  3.906250E-01  1.679688E+01  0.000000E+00
  3.906250E-01  1.718750E+01  0.000000E+00
  3.906250E-01  1.757812E+01  0.000000E+00
  3.906250E-01  1.796875E+01  0.000000E+00
  3.906250E-01  1.835938E+01  0.000000E+00
  3.906250E-01  1.875000E+01  0.000000E+00
  3.906250E-01  1.914062E+01  0.000000E+00
  3.906250E-01  1.953125E+01  0.000000E+00
  3.906250E-01  1.992188E+01  0.000000E+00
  3.906250E-01  2.031250E+01  0.000000E+00
  3.906250E-01  2.070312E+01  0.000000E+00
  3.906250E-01  2.109375E+01  0.000000E+00
  3.906250E-01  2.148438E+01  0.000000E+00
  3.906250E-01  2.187500E+01  0.000000E+00
  3.906250E-01  2.226562E+01  0.000000E+00
  3.906250E-01  2.265625E+01  0.000000E+00
  3.906250E-01  2.304688E+01  0.000000E+00
  3.906250E-01  2.343750E+01  0.000000E+00
  3.906250E-01  2.382812E+01  0.000000E+00
  3.906250E-01  2.421875E+01  0.000000E+00
  3.906250E-01  2.460938E+01  0.000000E+00
  7.812500E-01  0.000000E+00  0.000000E+00
  7.812500E-01  3.906250E-01  0.000000E+00
  7.812500E-01  7.812500E-01  0.000000E+00
  7.812500E-01  1.171875E+00  0.000000E+00
  7.812500E-01  1.562500E+00  0.000000E+00
  7.812500E-01  1.953125E+00  0.000000E+00
  7.812500E-01  2.343750E+00  0.000000E+00
  7.812500E-01  2.734375E+00  0.000000E+00
  7.812500E-01  3.125000E+00  0.000000E+00
  7.812500E-01  3.515625E+00  0.000000E+00
  7.812500E-01  3.906250E+00  0.000000E+00
  7.812500E-01  4.296875E+00  0.000000E+00
  7.812500E-01  4.687500E+00  0.000000E+00
  7.812500E-01  5.078125E+00  0.000000E+00
  7.812500E-01  5.468750E+00  0.000000E+00
  7.812500E-01  5.859375E+00  0.000000E+00
  7.812500E-01  6.250000E+00  0.000000E+00
  7.812500E-01  6.640625E+00  0.000000E+00
  7.812500E-01  7.031250E+00  0.000000E+00
  7.812500E-01  7.421875E+00  0.000000E+00
  7.812500E-01  7.812500E+00  0.000000E+00
  7.812500E-01  8.203125E+00  0.000000E+00
  7.812500E-01  8.593750E+00  0.000000E+00
  7.812500E-01  8.984375E+00  0.000000E+00
  7.812500E-01  9.375000E+00  0.000000E+00
  7.812500E-01  9.765625E+00  0.000000E+00
  7.812500E-01  1.015625E+01  0.000000E+00
  7.812500E-01  1.054688E+01  0.000000E+00
  7.812500E-01  1.093750E+01  0.000000E+00
  7.812500E-01  1.132812E+01  0.000000E+00
  7.812500E-01  1.171875E+01  0.000000E+00
  7.812500E-01  1.210938E+01  0.000000E+00
  7.812500E-01  1.250000E+01  0.000000E+00
  7.812500E-01  1.289062E+01  0.000000E+00
  7.812500E-01  1.328125E+01  0.000000E+00
  7.812500E-01  1.367188E+01  0.000000E+00
  7.812500E-01  1.406250E+01  0.000000E+00
  7.812500E-01  1.445312E+01  0.000000E+00
  7.812500E-01  1.484375E+01  0.000000E+00
  7.812500E-01  1.523438E+01  0.000000E+00
  7.812500E-01  1.562500E+01  0.000000E+00
  7.812500E-01  1.601562E+01  0.000000E+00
  7.812500E-01  1.640625E+01  0.000000E+00
  7.812500E-01  1.679688E+01  0.000000E+00
  7.812500E-01  1.718750E+01  0.000000E+00
  7.812500E-01  1.757812E+01  0.000000E+00
  7.812500E-01  1.796875E+01  0.000000E+00
  7.812500E-01  1.835938E+01  0.000000E+00
  7.812500E-01  1.875000E+01  0.000000E+00
  7.812500E-01  1.914062E+01  0.000000E+00
  7.812500E-01  1.953125E+01  0.000000E+00
  7.812500E-01  1.992188E+01  0.000000E+00
  7.812500E-01  2.031250E+01  0.000000E+00
  7.812500E-01  2.070312E+01  0.000000E+00
  7.812500E-01  2.109375E+01  0.000000E+00
  7.812500E-01  2.148438E+01  0.000000E+00
  7.812500E-01  2.187500E+01  0.000000E+00
  7.812500E-01  2.226562E+01  0.000000E+00
  7.812500E-01  2.265625E+01  0.000000E+00
  7.812500E-01  2.304688E+01  0.000000E+00
  7.812500E-01  2.343750E+01  0.000000E+00
  7.812500E-01  2.382812E+01  0.000000E+00
  7.812500E-01  2.421875E+01  0.000000E+00
  7.812500E-01  2.460938E+01  0.000000E+00
  1.171875E+00  0.000000E+00  0.000000E+00
  1.171875E+00  3.906250E-01  0.000000E+00
  1.171875E+00  7.812500E-01  0.000000E+00
  1.171875E+00  1.171875E+00  0.000000E+00
  1.171875E+00  1.562500E+00  0.000000E+00
  1.171875E+00  1.953125E+00  0.000000E+00
  1.171875E+00  2.343750E+00  0.000000E+00
  1.171875E+00  2.734375E+00  0.000000E+00
  1.171875E+00  3.125000E+00  0.000000E+00
  1.171875E+00  3.515625E+00  0.000000E+00
  1.171875E+00  3.906250E+00  0.000000E+00
  1.171875E+00  4.296875E+00  0.000000E+00
  1.171875E+00  4.687500E+00  0.000000E+00
  1.171875E+00  5.078125E+00  0.000000E+00
  1.171875E+00  5.468750E+00  0.000000E+00
  1.171875E+00  5.859375E+00  0.000000E+00
  1.171875E+00  6.250000E+00  0.000000E+00
  1.171875E+00  6.640625E+00  0.000000E+00
  1.171875E+00  7.031250E+00  0.000000E+00
  1.171875E+00  7.421875E+00  0.000000E+00
  1.171875E+00  7.812500E+00  0.000000E+00
  1.171875E+00  8.203125E+00  0.000000E+00
  1.171875E+00  8.593750E+00  0.000000E+00
  1.171875E+00  8.984375E+00  0.000000E+00
  1.171875E+00  9.375000E+00  0.000000E+00
  1.171875E+00  9.765625E+00  0.000000E+00
  1.171875E+00  1.015625E+01  0.000000E+00
  1.171875E+00  1.054688E+01  0.000000E+00
  1.171875E+00  1.093750E+01  0.000000E+00
  1.171875E+00  1.132812E+01  0.000000E+00
  1.171875E+00  1.171875E+01  0.000000E+00
  1.171875E+00  1.210938E+01  0.000000E+00
  1.171875E+00  1.250000E+01  0.000000E+00
  1.171875E+00  1.289062E+01  0.000000E+00
  1.171875E+00  1.328125E+01  0.000000E+00
  1.171875E+00  1.367188E+01  0.000000E+00
  1.171875E+00  1.406250E+01  0.000000E+00
  1.171875E+00  1.445312E+01  0.000000E+00
[...]
POINT_DATA   4096
SCALARS CON  float  1
LOOKUP_TABLE default
  3.846183E-01
  3.843012E-01
  3.890643E-01
  3.866338E-01
  3.875881E-01
  3.825352E-01
  3.841562E-01
  3.823238E-01
  3.866597E-01
  3.846968E-01
  3.864912E-01
  3.818962E-01
  3.829187E-01
  3.796489E-01
  3.829858E-01
  3.819244E-01
  3.865886E-01
  3.853239E-01
  3.881364E-01
  3.840375E-01
  3.845083E-01
  3.796860E-01
  3.807676E-01
  3.768844E-01
  3.785077E-01
  3.752480E-01
  3.784853E-01
  3.779420E-01
  3.836074E-01
  3.831518E-01
  3.860755E-01
  3.818729E-01
  3.830379E-01
  3.803227E-01
  3.843954E-01
  3.830207E-01
  3.855403E-01
  3.811130E-01
  3.816126E-01
  3.773884E-01
  3.793652E-01
  3.763828E-01
  3.786631E-01
  3.754815E-01
  3.778995E-01
  3.759229E-01
  3.808325E-01
  3.819266E-01
  3.886849E-01
  3.881161E-01
  3.894927E-01
  3.825745E-01
  3.808843E-01
  3.766179E-01
  3.817182E-01
  3.844453E-01
  3.926868E-01
  3.926870E-01
  3.943929E-01
  3.881775E-01
  3.870656E-01
  3.816501E-01
  3.830523E-01
  3.804768E-01
  3.855824E-01
  3.864716E-01
  3.917154E-01
  3.906522E-01
  3.904300E-01
  3.840062E-01
  3.825079E-01
  3.794827E-01
  3.828421E-01
  3.826659E-01
  3.858893E-01
  3.839285E-01
  3.854149E-01
  3.823558E-01
  3.834084E-01
  3.810035E-01
  3.840380E-01
  3.839360E-01
  3.876226E-01
  3.853818E-01
  3.854357E-01
  3.807291E-01
  3.809973E-01
  3.784695E-01
  3.808168E-01
  3.790459E-01
  3.812742E-01
  3.797658E-01
  3.831393E-01
  3.827466E-01
  3.859377E-01
  3.837775E-01
  3.848016E-01
  3.814479E-01
  3.825071E-01
  3.797554E-01
  3.813738E-01
  3.791440E-01
  3.813047E-01
  3.791864E-01
  3.804666E-01
  3.768083E-01
  3.770597E-01
  3.738288E-01
  3.757734E-01
  3.748804E-01
  3.795277E-01
  3.814651E-01
  3.878624E-01
  3.882365E-01
  3.892834E-01
  3.833829E-01
  3.819066E-01
  3.796357E-01
  3.855929E-01
  3.894912E-01
  3.961014E-01
  3.944863E-01
  3.933855E-01
  3.868633E-01
  3.856277E-01
  3.820006E-01
  3.836617E-01
  3.819645E-01
  3.796049E-01
  3.849476E-01
  3.909606E-01
  3.921025E-01
  3.902621E-01
  3.847618E-01
  3.815038E-01
  3.796642E-01
  3.816124E-01
  3.830993E-01
  3.853955E-01
  3.852492E-01
  3.854987E-01
  3.838572E-01
  3.835640E-01
  3.825386E-01
  3.838094E-01
  3.843815E-01
  3.860724E-01
  3.853610E-01
  3.848471E-01
  3.824373E-01
  3.815376E-01
  3.797698E-01
  3.797131E-01
  3.785391E-01
  3.789755E-01
  3.785003E-01
  3.797042E-01
  3.794643E-01
  3.800366E-01
  3.788662E-01
  3.793754E-01
  3.795237E-01
  3.817628E-01
  3.823514E-01
  3.830391E-01
  3.811696E-01
  3.802291E-01
  3.781413E-01
  3.775001E-01
  3.753052E-01
  3.743424E-01
  3.726076E-01
  3.734850E-01
  3.746978E-01
  3.788043E-01
  3.825226E-01
  3.872259E-01
  3.884885E-01
  3.880100E-01
  3.839044E-01
  3.813364E-01
  3.800987E-01
  3.837704E-01
  3.883823E-01
  3.937527E-01
  3.944113E-01
  3.922983E-01
  3.860900E-01
  3.808297E-01
  3.756879E-01
  3.743951E-01
  3.748157E-01
  3.800284E-01
  3.862557E-01
  3.901674E-01
  3.927321E-01
  3.885731E-01
  3.835631E-01
  3.772433E-01
  3.760813E-01
  3.763810E-01
  3.806354E-01
  3.831223E-01
  3.865333E-01
  3.862291E-01
  3.861732E-01
  3.831105E-01
  3.824450E-01
  3.814666E-01
  3.842191E-01
  3.854278E-01
  3.874271E-01
  3.855819E-01
  3.846755E-01
  3.820336E-01
  3.823412E-01
  3.813150E-01
  3.821113E-01
  3.802919E-01
  3.801387E-01
  3.785129E-01
  3.799232E-01
  3.801604E-01
  3.822698E-01
  3.814583E-01
  3.815837E-01
  3.792678E-01
  3.793019E-01
  3.783039E-01
  3.802458E-01
  3.805113E-01
  3.819752E-01
  3.799062E-01
  3.786419E-01
  3.756129E-01
  3.760651E-01
  3.762748E-01
  3.794001E-01
  3.806711E-01
  3.837865E-01
  3.845594E-01
  3.862537E-01
  3.841649E-01
  3.827745E-01
  3.800109E-01
  3.817652E-01
  3.843766E-01
  3.899901E-01
  3.918032E-01
  3.920682E-01
  3.872570E-01
  3.834488E-01
  3.785342E-01
  3.772019E-01
  3.755254E-01
  3.776321E-01
  3.764646E-01
  3.845875E-01
  3.868696E-01
  3.903938E-01
  3.848277E-01
  3.820488E-01
  3.753908E-01
  3.763159E-01
  3.752826E-01
  3.806571E-01
  3.813459E-01
  3.858371E-01
  3.839042E-01
  3.855084E-01
  3.818186E-01
  3.835702E-01
  3.816536E-01
  3.854843E-01
  3.845419E-01
  3.877015E-01
  3.848607E-01
  3.859309E-01
  3.816175E-01
  3.820717E-01
  3.779947E-01
  3.792202E-01
  3.761265E-01
  3.782520E-01
  3.759798E-01
  3.789153E-01
  3.773070E-01
  3.804803E-01
  3.785908E-01
  3.813963E-01
  3.794572E-01
  3.824245E-01
  3.804167E-01
  3.829032E-01
  3.801567E-01
  3.817435E-01
  3.779367E-01
  3.787720E-01
  3.755306E-01
  3.786385E-01
  3.784391E-01
  3.834825E-01
  3.828577E-01
  3.858137E-01
  3.829635E-01
  3.843910E-01
  3.804924E-01
  3.811564E-01
  3.774647E-01
  3.799823E-01
  3.794998E-01
  3.850070E-01
  3.853347E-01
  3.887128E-01
  3.847695E-01
  3.837283E-01
  3.770488E-01
  3.757351E-01
  3.714891E-01
  3.748587E-01
  3.801974E-01
  3.857384E-01
  3.853458E-01
  3.885218E-01
  3.826359E-01
  3.805992E-01
  3.733569E-01
  3.743280E-01
  3.725253E-01
  3.784745E-01
  3.792498E-01
  3.849334E-01
  3.830153E-01
  3.850827E-01
  3.805405E-01
  3.825193E-01
  3.805588E-01
  3.859914E-01
  3.857955E-01
  3.899797E-01
  3.861965E-01
  3.866973E-01
  3.810205E-01
  3.817215E-01
  3.775640E-01
  3.798075E-01
  3.765658E-01
  3.792907E-01
  3.769789E-01
  3.816210E-01
  3.814026E-01
  3.865335E-01
  3.839419E-01
  3.849740E-01
  3.793166E-01
  3.804081E-01
  3.777952E-01
  3.826088E-01
  3.817902E-01
  3.853177E-01
  3.811253E-01
  3.819664E-01
  3.782962E-01
  3.827859E-01
  3.831012E-01
  3.885560E-01
  3.857647E-01
  3.866000E-01
  3.809967E-01
  3.817854E-01
  3.775359E-01
  3.794994E-01
  3.763626E-01
  3.801073E-01
  3.791844E-01
  3.841451E-01
  3.822463E-01
  3.847011E-01
  3.805968E-01
  3.824909E-01
  3.791659E-01
  3.818320E-01
  3.786947E-01
  3.817126E-01
  3.782210E-01
  3.830048E-01
  3.825813E-01
  3.855140E-01
  3.813543E-01
  3.810951E-01
  3.762274E-01
  3.777279E-01
  3.758982E-01
  3.801631E-01
  3.796963E-01
  3.835158E-01
  3.811314E-01
  3.829384E-01
  3.799751E-01
  3.831823E-01
  3.827095E-01
  3.877764E-01
  3.871884E-01
  3.901817E-01
  3.864215E-01
  3.862939E-01
  3.803028E-01
  3.792913E-01
  3.742300E-01
  3.756771E-01
  3.737215E-01
  3.777121E-01
  3.771847E-01
  3.817915E-01
  3.813252E-01
  3.852920E-01
  3.832045E-01
  3.852908E-01
  3.822999E-01
  3.849067E-01
  3.830071E-01
  3.859314E-01
  3.829920E-01
  3.840576E-01
  3.795926E-01
  3.806394E-01
  3.783293E-01
  3.830010E-01
  3.837654E-01
  3.887164E-01
  3.862488E-01
  3.865920E-01
  3.811791E-01
  3.814488E-01
  3.777514E-01
  3.795811E-01
  3.765853E-01
  3.787818E-01
  3.765203E-01
  3.797963E-01
  3.784051E-01
  3.819817E-01
  3.802673E-01
  3.830081E-01
  3.799989E-01
  3.812982E-01
  3.775154E-01
  3.795884E-01
  3.809031E-01
  3.823083E-01
  3.817591E-01
  3.842375E-01
  3.825116E-01
  3.825146E-01
  3.790207E-01
  3.792411E-01
  3.778075E-01
  3.806663E-01
  3.810147E-01
  3.838901E-01
  3.824803E-01
  3.830183E-01
  3.804871E-01
  3.823100E-01
  3.830436E-01
  3.880212E-01
  3.893434E-01
  3.915037E-01
  3.879179E-01
  3.856749E-01
  3.801765E-01
  3.787947E-01
  3.760679E-01
  3.778572E-01
  3.774906E-01
  3.804149E-01
  3.805734E-01
  3.843922E-01
  3.856876E-01
  3.894603E-01
  3.882194E-01
  3.878903E-01
  3.837358E-01
  3.837397E-01
  3.826149E-01
  3.856489E-01
  3.851148E-01
  3.859996E-01
  3.824397E-01
  3.820000E-01
  3.802218E-01
  3.836078E-01
  3.848305E-01
  3.878917E-01
  3.855215E-01
  3.846255E-01
  3.808304E-01
  3.812236E-01
  3.794357E-01
  3.808202E-01
  3.792131E-01
  3.810658E-01
  3.803363E-01
  3.823802E-01
  3.804460E-01
  3.808900E-01
  3.788026E-01
  3.811421E-01
  3.815081E-01
  3.846195E-01
  3.832476E-01
  3.836207E-01
  3.766009E-01
  3.782098E-01
  3.794210E-01
  3.822847E-01
  3.832264E-01
  3.847403E-01
  3.840653E-01
  3.844489E-01
  3.835326E-01
  3.844037E-01
  3.839803E-01
  3.845314E-01
  3.828984E-01
  3.824009E-01
  3.812436E-01
  3.830539E-01
  3.848352E-01
  3.883279E-01
  3.893053E-01
  3.897947E-01
  3.869412E-01
  3.842992E-01
  3.799610E-01
  3.777764E-01
  3.757886E-01
  3.771142E-01
  3.783777E-01
  3.812664E-01
  3.820907E-01
  3.836349E-01
  3.834886E-01
  3.847539E-01
  3.845331E-01
  3.857562E-01
  3.858490E-01
  3.876407E-01
  3.875870E-01
  3.876640E-01
  3.847987E-01
  3.826169E-01
  3.794896E-01
  3.791593E-01
  3.789776E-01
  3.812359E-01
  3.821442E-01
  3.836606E-01
  3.827272E-01
  3.828094E-01
  3.818719E-01
  3.829391E-01
  3.826104E-01
  3.831202E-01
  3.816877E-01
  3.817790E-01
  3.810222E-01
  3.820830E-01
  3.816066E-01
  3.821849E-01
  3.811704E-01
  3.816185E-01
  3.805443E-01
  3.804088E-01
  3.783289E-01
  3.777217E-01
  3.779117E-01
  3.778096E-01
  3.790207E-01
  3.820505E-01
  3.842035E-01
  3.856922E-01
  3.851686E-01
  3.846962E-01
  3.839389E-01
  3.846142E-01
  3.851034E-01
  3.858241E-01
  3.847917E-01
  3.834199E-01
  3.814959E-01
  3.816236E-01
  3.831295E-01
  3.865195E-01
  3.886993E-01
  3.892951E-01
  3.866883E-01
  3.833530E-01
  3.798343E-01
  3.788002E-01
  3.793474E-01
  3.820085E-01
  3.841200E-01
  3.857452E-01
  3.854334E-01
  3.853397E-01
  3.850851E-01
  3.859146E-01
  3.857754E-01
  3.855072E-01
  3.843238E-01
  3.843315E-01
  3.843836E-01
  3.849907E-01
  3.840040E-01
  3.826413E-01
  3.804570E-01
  3.797722E-01
  3.797834E-01
  3.812614E-01
  3.818616E-01
  3.821378E-01
  3.811624E-01
  3.812987E-01
  3.819405E-01
  3.838088E-01
  3.843916E-01
  3.844324E-01
  3.834682E-01
  3.840250E-01
  3.850315E-01
  3.865578E-01
  3.859206E-01
  3.843237E-01
  3.818690E-01
  3.812855E-01
  3.814323E-01
  3.823695E-01
  3.815220E-01
  3.800566E-01
  3.742179E-01
  3.757174E-01
  3.775076E-01
  3.810796E-01
  3.834199E-01
  3.859388E-01
  3.861189E-01
  3.864243E-01
  3.853786E-01
  3.857203E-01
  3.851924E-01
  3.853534E-01
  3.835805E-01
  3.824210E-01
  3.807346E-01
  3.815573E-01
  3.827392E-01
  3.855604E-01
  3.866033E-01
  3.871419E-01
  3.848650E-01
  3.826272E-01
  3.793782E-01
  3.784437E-01
  3.784230E-01
  3.813343E-01
  3.838081E-01
  3.863025E-01
  3.855859E-01
  3.842096E-01
  3.813484E-01
  3.804498E-01
  3.799039E-01
  3.817736E-01
  3.833518E-01
  3.858355E-01
  3.858507E-01
  3.848805E-01
  3.812584E-01
  3.786929E-01
  3.765051E-01
  3.772716E-01
  3.780871E-01
  3.799086E-01
  3.798747E-01
  3.803821E-01
  3.801049E-01
  3.818479E-01
  3.832405E-01
  3.854226E-01
  3.851618E-01
  3.845312E-01
  3.823947E-01
  3.822766E-01
  3.825800E-01
  3.848679E-01
  3.857709E-01
  3.866414E-01
  3.852543E-01
  3.841862E-01
  3.815633E-01
  3.796977E-01
  3.767106E-01
  3.753732E-01
  3.772996E-01
  3.778263E-01
  3.783108E-01
  3.817322E-01
  3.830901E-01
  3.849859E-01
  3.835496E-01
  3.832767E-01
  3.815636E-01
  3.827095E-01
  3.827245E-01
  3.843384E-01
  3.829768E-01
  3.823126E-01
  3.796170E-01
  3.799167E-01
  3.803104E-01
  3.840253E-01
  3.858198E-01
  3.877102E-01
  3.853167E-01
  3.832172E-01
  3.794876E-01
  3.794045E-01
  3.798428E-01
  3.837392E-01
  3.857956E-01
  3.881560E-01
  3.866248E-01
  3.857686E-01
  3.831510E-01
  3.830826E-01
  3.816089E-01
  3.819881E-01
  3.805628E-01
  3.813331E-01
  3.806013E-01
  3.815647E-01
  3.800792E-01
  3.799770E-01
  3.782612E-01
  3.792320E-01
  3.792390E-01
  3.813188E-01
  3.810471E-01
  3.819723E-01
  3.810289E-01
  3.826271E-01
  3.830033E-01
  3.848365E-01
  3.834184E-01
  3.826529E-01
  3.803090E-01
  3.815358E-01
  3.827690E-01
  3.863201E-01
  3.868267E-01
  3.874579E-01
  3.852914E-01
  3.851394E-01
  3.835830E-01
  3.837399E-01
  3.812776E-01
  3.800327E-01
  3.754384E-01
  3.775790E-01
  3.781044E-01
  3.813357E-01
  3.820283E-01
  3.843744E-01
  3.832245E-01
  3.835763E-01
  3.813814E-01
  3.820665E-01
  3.808788E-01
  3.820095E-01
  3.802212E-01
  3.804983E-01
  3.788441E-01
  3.806271E-01
  3.810854E-01
  3.844044E-01
  3.850273E-01
  3.870179E-01
  3.851089E-01
  3.841497E-01
  3.800712E-01
  3.788824E-01
  3.770247E-01
  3.796309E-01
  3.811532E-01
  3.847012E-01
  3.840809E-01
  3.838898E-01
  3.803793E-01
  3.797210E-01
  3.780301E-01
  3.801021E-01
  3.805649E-01
  3.831840E-01
  3.822576E-01
  3.822410E-01
  3.789645E-01
  3.783571E-01
  3.765856E-01
  3.784448E-01
  3.785021E-01
  3.807234E-01
  3.801017E-01
  3.817253E-01
  3.812552E-01
  3.834476E-01
  3.829730E-01
  3.839144E-01
  3.812880E-01
  3.804662E-01
  3.777639E-01
  3.788002E-01
  3.790165E-01
  3.826319E-01
  3.839933E-01
  3.870248E-01
  3.863279E-01
  3.864678E-01
  3.828744E-01
  3.810524E-01
  3.771928E-01
  3.768150E-01
  3.801672E-01
  3.807034E-01
  3.801367E-01
  3.820674E-01
  3.821750E-01
  3.833473E-01
  3.815836E-01
  3.810424E-01
  3.789266E-01
  3.795236E-01
  3.790729E-01
  3.806076E-01
  3.798460E-01
  3.803972E-01
  3.791119E-01
  3.803857E-01
  3.809658E-01
  3.843075E-01
  3.858698E-01
  3.882251E-01
  3.868547E-01
  3.855264E-01
  3.815001E-01
  3.798431E-01
  3.779103E-01
  3.795299E-01
  3.803364E-01
  3.829052E-01
  3.827933E-01
  3.837091E-01
  3.824821E-01
  3.831487E-01
  3.818681E-01
  3.820129E-01
  3.799768E-01
  3.799631E-01
  3.788005E-01
  3.801844E-01
  3.799945E-01
  3.814052E-01
  3.805838E-01
  3.814524E-01
  3.806948E-01
  3.820893E-01
  3.817044E-01
  3.828848E-01
  3.818381E-01
  3.823651E-01
  3.808271E-01
  3.807888E-01
  3.786073E-01
  3.784949E-01
  3.775985E-01
  3.799508E-01
  3.813397E-01
  3.842809E-01
  3.841939E-01
  3.847621E-01
  3.829600E-01
  3.831687E-01
  3.819197E-01
  3.826965E-01
  3.814820E-01
  3.818028E-01
  3.801264E-01
  3.812980E-01
  3.810285E-01
  3.814323E-01
  3.815560E-01
  3.826736E-01
  3.826684E-01
  3.826295E-01
  3.813080E-01
  3.806582E-01
  3.794674E-01
  3.791877E-01
  3.784590E-01
  3.791237E-01
  3.800027E-01
  3.822894E-01
  3.838161E-01
  3.855498E-01
  3.860702E-01
  3.870516E-01
  3.867327E-01
  3.858832E-01
  3.826737E-01
  3.792717E-01
  3.757236E-01
  3.748251E-01
  3.753642E-01
  3.777859E-01
  3.791117E-01
  3.799049E-01
  3.790057E-01
  3.789512E-01
  3.791116E-01
  3.809064E-01
  3.820855E-01
  3.832285E-01
  3.824969E-01
  3.817072E-01
  3.801434E-01
  3.798826E-01
  3.795740E-01
  3.803728E-01
  3.804550E-01
  3.811579E-01
  3.810679E-01
  3.816314E-01
  3.811734E-01
  3.809394E-01
  3.794964E-01
  3.787072E-01
  3.776834E-01
  3.782764E-01
  3.789329E-01
  3.805759E-01
  3.811638E-01
  3.819512E-01
  3.816336E-01
  3.818121E-01
  3.808415E-01
  3.799984E-01
  3.781154E-01
  3.774855E-01
  3.773422E-01
  3.790120E-01
  3.867491E-01
  3.854841E-01
  3.838179E-01
  3.820127E-01
  3.816290E-01
  3.812912E-01
  3.814189E-01
  3.807378E-01
  3.804335E-01
  3.796968E-01
  3.795858E-01
  3.790460E-01
  3.792393E-01
  3.794403E-01
  3.808364E-01
  3.822153E-01
  3.841704E-01
  3.853345E-01
  3.866494E-01
  3.870187E-01
  3.871649E-01
  3.856281E-01
  3.833755E-01
  3.799930E-01
  3.775563E-01
  3.758986E-01
  3.762057E-01
  3.769371E-01
  3.783695E-01
  3.791235E-01
  3.803917E-01
  3.813847E-01
  3.828746E-01
  3.831591E-01
  3.828317E-01
  3.812343E-01
  3.803678E-01
  3.799629E-01
  3.809777E-01
  3.816563E-01
  3.823579E-01
  3.820540E-01
  3.823025E-01
  3.824333E-01
  3.831252E-01
  3.825665E-01
  3.813765E-01
  3.789729E-01
  3.773518E-01
  3.763186E-01
  3.772149E-01
  3.788852E-01
  3.818114E-01
  3.840175E-01
  3.854140E-01
  3.842891E-01
  3.819463E-01
  3.784686E-01
  3.761963E-01
  3.750620E-01
  3.764423E-01
  3.790365E-01
  3.828839E-01
  3.855081E-01
  3.873180E-01
  3.864560E-01
  3.845959E-01
  3.813993E-01
  3.806005E-01
  3.802351E-01
  3.816917E-01
  3.818272E-01
  3.823587E-01
  3.810564E-01
  3.803071E-01
  3.783323E-01
  3.780718E-01
  3.781219E-01
  3.807893E-01
  3.829436E-01
  3.853573E-01
  3.851212E-01
  3.850572E-01
  3.840907E-01
  3.847772E-01
  3.840548E-01
  3.830011E-01
  3.792902E-01
  3.763547E-01
  3.736527E-01
  3.741348E-01
  3.749900E-01
  3.769703E-01
  3.769601E-01
  3.775163E-01
  3.776469E-01
  3.802687E-01
  3.826176E-01
  3.854159E-01
  3.852544E-01
  3.843280E-01
  3.814604E-01
  3.800725E-01
  3.786299E-01
  3.792971E-01
  3.795186E-01
  3.811322E-01
  3.816197E-01
  3.827400E-01
  3.817882E-01
  3.808039E-01
  3.780853E-01
  3.768493E-01
  3.759149E-01
  3.778647E-01
  3.800235E-01
  3.833227E-01
  3.841701E-01
  3.841026E-01
  3.813746E-01
  3.793451E-01
  3.767136E-01
  3.758687E-01
  3.745788E-01
  3.753642E-01
  3.767015E-01
  3.808282E-01
  3.843015E-01
  3.920111E-01
  3.889582E-01
  3.860842E-01
  3.818014E-01
  3.805259E-01
  3.787966E-01
  3.794538E-01
  3.786739E-01
  3.796298E-01
  3.787687E-01
  3.793416E-01
  3.780367E-01
  3.786351E-01
  3.782251E-01
  3.802808E-01
  3.809362E-01
  3.828595E-01
  3.822872E-01
  3.829318E-01
  3.819762E-01
  3.830393E-01
  3.823211E-01
  3.826158E-01
  3.803658E-01
  3.795429E-01
  3.776028E-01
  3.783394E-01
  3.780691E-01
  3.795674E-01
  3.792764E-01
  3.810489E-01
  3.819316E-01
  3.849145E-01
  3.853847E-01
  3.857728E-01
  3.828897E-01
  3.814684E-01
  3.793183E-01
  3.800382E-01
  3.796017E-01
  3.808241E-01
  3.804257E-01
  3.822484E-01
  3.828100E-01
  3.845232E-01
  3.828210E-01
  3.809965E-01
  3.768892E-01
  3.755920E-01
  3.747484E-01
  3.776131E-01
  3.799141E-01
  3.838344E-01
  3.848431E-01
  3.856497E-01
  3.828706E-01
  3.807340E-01
  3.770379E-01
  3.762280E-01
  3.755961E-01
  3.787625E-01
  3.820375E-01
  3.876617E-01
  3.903741E-01
  3.881224E-01
  3.859802E-01
  3.847847E-01
  3.806102E-01
  3.800798E-01
  3.781941E-01
  3.797250E-01
  3.786742E-01
  3.799615E-01
  3.782239E-01
  3.788492E-01
  3.767914E-01
  3.778419E-01
  3.772108E-01
  3.801261E-01
  3.803723E-01
  3.820972E-01
  3.796657E-01
  3.794106E-01
  3.775153E-01
  3.798605E-01
  3.802631E-01
  3.824740E-01
  3.803773E-01
  3.800161E-01
  3.775623E-01
  3.791788E-01
  3.790577E-01
  3.812546E-01
  3.798027E-01
  3.806982E-01
  3.799005E-01
  3.832091E-01
  3.843585E-01
  3.871029E-01
  3.851361E-01
  3.841638E-01
  3.800055E-01
  3.790879E-01
  3.766877E-01
  3.781921E-01
  3.781126E-01
  3.813021E-01
  3.816919E-01
  3.836948E-01
  3.813817E-01
  3.803546E-01
  3.763647E-01
  3.759987E-01
  3.747810E-01
  3.779042E-01
  3.791918E-01
  3.826513E-01
  3.820125E-01
  3.826425E-01
  3.801831E-01
  3.810688E-01
  3.802521E-01
  3.823614E-01
  3.812990E-01
  3.825124E-01
  3.816174E-01
  3.845951E-01
  3.854944E-01
  3.880073E-01
  3.844280E-01
  3.845664E-01
  3.806370E-01
  3.812141E-01
  3.778629E-01
  3.787652E-01
  3.757172E-01
  3.772220E-01
  3.751433E-01
  3.777096E-01
  3.764941E-01
  3.795819E-01
  3.784521E-01
  3.810898E-01
  3.788601E-01
  3.800072E-01
  3.766058E-01
  3.777337E-01
  3.758344E-01
  3.793160E-01
  3.793024E-01
  3.831323E-01
  3.818783E-01
  3.840946E-01
  3.820935E-01
  3.845710E-01
  3.829164E-01
  3.850773E-01
  3.828577E-01
  3.852974E-01
  3.843572E-01
  3.876417E-01
  3.854396E-01
  3.855354E-01
  3.804178E-01
  3.800689E-01
  3.771494E-01
  3.796782E-01
  3.784658E-01
  3.813082E-01
  3.801500E-01
  3.836480E-01
  3.830709E-01
  3.856297E-01
  3.820622E-01
  3.811027E-01
  3.759029E-01
  3.762365E-01
  3.743624E-01
  3.780335E-01
  3.780959E-01
  3.821298E-01
  3.814919E-01
  3.845187E-01
  3.830893E-01
  3.858306E-01
  3.844798E-01
  3.872257E-01
  3.854624E-01
  3.876819E-01
  3.858214E-01
  3.883506E-01
  3.864746E-01
  3.815978E-01
  3.802699E-01
  3.828931E-01
  3.802333E-01
  3.819006E-01
  3.790492E-01
  3.807802E-01
  3.777685E-01
  3.791863E-01
  3.762066E-01
  3.782641E-01
  3.764109E-01
  3.797256E-01
  3.788403E-01
  3.823401E-01
  3.802736E-01
  3.813181E-01
  3.767542E-01
  3.770939E-01
  3.746260E-01
  3.787245E-01
  3.791647E-01
  3.834144E-01
  3.814896E-01
  3.832261E-01
  3.807426E-01
  3.837971E-01
  3.825538E-01
  3.851196E-01
  3.820265E-01
  3.833354E-01
  3.809035E-01
  3.840099E-01
  3.825716E-01
  3.848347E-01
  3.814042E-01
  3.819887E-01
  3.780999E-01
  3.793379E-01
  3.768736E-01
  3.800138E-01
  3.795382E-01
  3.839959E-01
  3.832242E-01
  3.855944E-01
  3.818007E-01
  3.817998E-01
  3.774821E-01
  3.787325E-01