# vtk DataFile Version 2.0
title
ASCII
DATASET STRUCTURED_GRID
DIMENSIONS   64   64    1
POINTS   4096  float
  0.000000E+00  0.000000E+00  0.000000E+00
  0.000000E+00  3.906250E-01  0.000000E+00
  0.000000E+00  7.812500E-01  0.000000E+00
  0.000000E+00  1.171875E+00  0.000000E+00
  0.000000E+00  1.562500E+00  0.000000E+00
  0.000000E+00  1.953125E+00  0.000000E+00
  0.000000E+00  2.343750E+00  0.000000E+00
  0.000000E+00  2.734375E+00  0.000000E+00
  0.000000E+00  3.125000E+00  0.000000E+00
  0.000000E+00  3.515625E+00  0.000000E+00
  0.000000E+00  3.906250E+00  0.000000E+00
  0.000000E+00  4.296875E+00  0.000000E+00
  0.000000E+00  4.687500E+00  0.000000E+00
  0.000000E+00  5.078125E+00  0.000000E+00
  0.000000E+00  5.468750E+00  0.000000E+00
  0.000000E+00  5.859375E+00  0.000000E+00
  0.000000E+00  6.250000E+00  0.000000E+00
  0.000000E+00  6.640625E+00  0.000000E+00
  0.000000E+00  7.031250E+00  0.000000E+00
  0.000000E+00  7.421875E+00  0.000000E+00
  0.000000E+00  7.812500E+00  0.000000E+00
  0.000000E+00  8.203125E+00  0.000000E+00
  0.000000E+00  8.593750E+00  0.000000E+00
  0.000000E+00  8.984375E+00  0.000000E+00
  0.000000E+00  9.375000E+00  0.000000E+00
  0.000000E+00  9.765625E+00  0.000000E+00
  0.000000E+00  1.015625E+01  0.000000E+00
  0.000000E+00  1.054688E+01  0.000000E+00
  0.000000E+00  1.093750E+01  0.000000E+00
  0.000000E+00  1.132812E+01  0.000000E+00
  0.000000E+00  1.171875E+01  0.000000E+00
  0.000000E+00  1.210938E+01  0.000000E+00
  0.000000E+00  1.250000E+01  0.000000E+00
  0.000000E+00  1.289062E+01  0.000000E+00
  0.000000E+00  1.328125E+01  0.000000E+00
  0.000000E+00  1.367188E+01  0.000000E+00
  0.000000E+00  1.406250E+01  0.000000E+00
  0.000000E+00  1.445312E+01  0.000000E+00
  0.000000E+00  1.484375E+01  0.000000E+00
  0.000000E+00  1.523438E+01  0.000000E+00
  0.000000E+00  1.562500E+01  0.000000E+00
  0.000000E+00  1.601562E+01  0.000000E+00
  0.000000E+00  1.640625E+01  0.000000E+00
  0.000000E+00  1.679688E+01  0.000000E+00
  0.000000E+00  1.718750E+01  0.000000E+00
  0.000000E+00  1.757812E+01  0.000000E+00
  0.000000E+00  1.796875E+01  0.000000E+00
  0.000000E+00  1.835938E+01  0.000000E+00
  0.000000E+00  1.875000E+01  0.000000E+00
  0.000000E+00  1.914062E+01  0.000000E+00
  0.000000E+00  1.953125E+01  0.000000E+00
  0.000000E+00  1.992188E+01  0.000000E+00
  0.000000E+00  2.031250E+01  0.000000E+00
  0.000000E+00  2.070312E+01  0.000000E+00
  0.000000E+00  2.109375E+01  0.000000E+00
  0.000000E+00  2.148438E+01  0.000000E+00
  0.000000E+00  2.187500E+01  0.000000E+00
  0.000000E+00  2.226562E+01  0.000000E+00
  0.000000E+00  2.265625E+01  0.000000E+00
  0.000000E+00  2.304688E+01  0.000000E+00
  0.000000E+00  2.343750E+01  0.000000E+00
  0.000000E+00  2.382812E+01  0.000000E+00
  0.000000E+00  2.421875E+01  0.000000E+00
  0.000000E+00  2.460938E+01  0.000000E+00
  3.906250E-01  0.000000E+00  0.000000E+00
  3.906250E-01  3.906250E-01  0.000000E+00
  3.906250E-01  7.812500E-01  0.000000E+00
  3.906250E-01  1.171875E+00  0.000000E+00
  3.906250E-01  1.562500E+00  0.000000E+00
  3.906250E-01  1.953125E+00  0.000000E+00
  3.906250E-01  2.343750E+00  0.000000E+00
  3.906250E-01  2.734375E+00  0.000000E+00
  3.906250E-01  3.125000E+00  0.000000E+00
  3.906250E-01  3.515625E+00  0.000000E+00
  3.906250E-01  3.906250E+00  0.000000E+00
  3.906250E-01  4.296875E+00  0.000000E+00
  3.906250E-01  4.687500E+00  0.000000E+00
  3.906250E-01  5.078125E+00  0.000000E+00
  3.906250E-01  5.468750E+00  0.000000E+00
  3.906250E-01  5.859375E+00  0.000000E+00
  3.906250E-01  6.250000E+00  0.000000E+00
  3.906250E-01  6.640625E+00  0.000000E+00
  3.906250E-01  7.031250E+00  0.000000E+00
  3.906250E-01  7.421875E+00  0.000000E+00
  3.906250E-01  7.812500E+00  0.000000E+00
  3.906250E-01  8.203125E+00  0.000000E+00
  3.906250E-01  8.593750E+00  0.000000E+00
  3.906250E-01  8.984375E+00  0.000000E+00
  3.906250E-01  9.375000E+00  0.000000E+00
  3.906250E-01  9.765625E+00  0.000000E+00
  3.906250E-01  1.015625E+01  0.000000E+00
  3.906250E-01  1.054688E+01  0.000000E+00
  3.906250E-01  1.093750E+01  0.000000E+00
  3.906250E-01  1.132812E+01  0.000000E+00
  3.906250E-01  1.171875E+01  0.000000E+00
  3.906250E-01  1.210938E+01  0.000000E+00
  3.906250E-01  1.250000E+01  0.000000E+00
  3.906250E-01  1.289062E+01  0.000000E+00
  3.906250E-01  1.328125E+01  0.000000E+00
  3.906250E-01  1.367188E+01  0.000000E+00
  3.906250E-01  1.406250E+01  0.000000E+00
  3.906250E-01  1.445312E+01  0.000000E+00
  3.906250E-01  1.484375E+01  0.000000E+00
  3.906250E-01  1.523438E+01  0.000000E+00
  3.906250E-01  1.562500E+01  0.000000E+00
  3.906250E-01  1.601562E+01  0.000000E+00
  3.906250E-01  1.640625E+01  0.000000E+00
  3.906250E-01  1.679688E+01  0.000000E+00
  3.906250E-01  1.718750E+01  0.000000E+00
  3.906250E-01  1.757812E+01  0.000000E+00
  3.906250E-01  1.796875E+01  0.000000E+00
  3.906250E-01  1.835938E+01  0.000000E+00
  3.906250E-01  1.875000E+01  0.000000E+00
  3.906250E-01  1.914062E+01  0.000000E+00
  3.906250E-01  1.953125E+01  0.000000E+00
  3.906250E-01  1.992188E+01  0.000000E+00
  3.906250E-01  2.031250E+01  0.000000E+00
  3.906250E-01  2.070312E+01  0.000000E+00
  3.906250E-01  2.109375E+01  0.000000E+00
  3.906250E-01  2.148438E+01  0.000000E+00
  3.906250E-01  2.187500E+01  0.000000E+00
  3.906250E-01  2.226562E+01  0.000000E+00
  3.906250E-01  2.265625E+01  0.000000E+00
  3.906250E-01  2.304688E+01  0.000000E+00
  3.906250E-01  2.343750E+01  0.000000E+00
  3.906250E-01  2.382812E+01  0.000000E+00
  3.906250E-01  2.421875E+01  0.000000E+00
  3.906250E-01  2.460938E+01  0.000000E+00
  7.812500E-01  0.000000E+00  0.000000E+00
  7.812500E-01  3.906250E-01  0.000000E+00
  7.812500E-01  7.812500E-01  0.000000E+00
  7.812500E-01  1.171875E+00  0.000000E+00
  7.812500E-01  1.562500E+00  0.000000E+00
  7.812500E-01  1.953125E+00  0.000000E+00
  7.812500E-01  2.343750E+00  0.000000E+00
  7.812500E-01  2.734375E+00  0.000000E+00
  7.812500E-01  3.125000E+00  0.000000E+00
  7.812500E-01  3.515625E+00  0.000000E+00
  7.812500E-01  3.906250E+00  0.000000E+00
  7.812500E-01  4.296875E+00  0.000000E+00
  7.812500E-01  4.687500E+00  0.000000E+00
  7.812500E-01  5.078125E+00  0.000000E+00
  7.812500E-01  5.468750E+00  0.000000E+00
  7.812500E-01  5.859375E+00  0.000000E+00
  7.812500E-01  6.250000E+00  0.000000E+00
  7.812500E-01  6.640625E+00  0.000000E+00
  7.812500E-01  7.031250E+00  0.000000E+00
  7.812500E-01  7.421875E+00  0.000000E+00
  7.812500E-01  7.812500E+00  0.000000E+00
  7.812500E-01  8.203125E+00  0.000000E+00
  7.812500E-01  8.593750E+00  0.000000E+00
  7.812500E-01  8.984375E+00  0.000000E+00
  7.812500E-01  9.375000E+00  0.000000E+00
  7.812500E-01  9.765625E+00  0.000000E+00
  7.812500E-01  1.015625E+01  0.000000E+00
  7.812500E-01  1.054688E+01  0.000000E+00
  7.812500E-01  1.093750E+01  0.000000E+00
  7.812500E-01  1.132812E+01  0.000000E+00
  7.812500E-01  1.171875E+01  0.000000E+00
  7.812500E-01  1.210938E+01  0.000000E+00
  7.812500E-01  1.250000E+01  0.000000E+00
  7.812500E-01  1.289062E+01  0.000000E+00
  7.812500E-01  1.328125E+01  0.000000E+00
  7.812500E-01  1.367188E+01  0.000000E+00
  7.812500E-01  1.406250E+01  0.000000E+00
  7.812500E-01  1.445312E+01  0.000000E+00
  7.812500E-01  1.484375E+01  0.000000E+00
  7.812500E-01  1.523438E+01  0.000000E+00
  7.812500E-01  1.562500E+01  0.000000E+00
  7.812500E-01  1.601562E+01  0.000000E+00
  7.812500E-01  1.640625E+01  0.000000E+00
  7.812500E-01  1.679688E+01  0.000000E+00
  7.812500E-01  1.718750E+01  0.000000E+00
  7.812500E-01  1.757812E+01  0.000000E+00
  7.812500E-01  1.796875E+01  0.000000E+00
  7.812500E-01  1.835938E+01  0.000000E+00
  7.812500E-01  1.875000E+01  0.000000E+00
  7.812500E-01  1.914062E+01  0.000000E+00
  7.812500E-01  1.953125E+01  0.000000E+00
  7.812500E-01  1.992188E+01  0.000000E+00
  7.812500E-01  2.031250E+01  0.000000E+00
  7.812500E-01  2.070312E+01  0.000000E+00
  7.812500E-01  2.109375E+01  0.000000E+00
  7.812500E-01  2.148438E+01  0.000000E+00
  7.812500E-01  2.187500E+01  0.000000E+00
  7.812500E-01  2.226562E+01  0.000000E+00
  7.812500E-01  2.265625E+01  0.000000E+00
  7.812500E-01  2.304688E+01  0.000000E+00
  7.812500E-01  2.343750E+01  0.000000E+00
  7.812500E-01  2.382812E+01  0.000000E+00
  7.812500E-01  2.421875E+01  0.000000E+00
  7.812500E-01  2.460938E+01  0.000000E+00
  1.171875E+00  0.000000E+00  0.000000E+00
  1.171875E+00  3.906250E-01  0.000000E+00
  1.171875E+00  7.812500E-01  0.000000E+00
  1.171875E+00  1.171875E+00  0.000000E+00
  1.171875E+00  1.562500E+00  0.000000E+00
  1.171875E+00  1.953125E+00  0.000000E+00
  1.171875E+00  2.343750E+00  0.000000E+00
  1.171875E+00  2.734375E+00  0.000000E+00
  1.171875E+00  3.125000E+00  0.000000E+00
  1.171875E+00  3.515625E+00  0.000000E+00
  1.171875E+00  3.906250E+00  0.000000E+00
  1.171875E+00  4.296875E+00  0.000000E+00
  1.171875E+00  4.687500E+00  0.000000E+00
  1.171875E+00  5.078125E+00  0.000000E+00
  1.171875E+00  5.468750E+00  0.000000E+00
  1.171875E+00  5.859375E+00  0.000000E+00
  1.171875E+00  6.250000E+00  0.000000E+00
  1.171875E+00  6.640625E+00  0.000000E+00
  1.171875E+00  7.031250E+00  0.000000E+00
  1.171875E+00  7.421875E+00  0.000000E+00
  1.171875E+00  7.812500E+00  0.000000E+00
  1.171875E+00  8.203125E+00  0.000000E+00
  1.171875E+00  8.593750E+00  0.000000E+00
  1.171875E+00  8.984375E+00  0.000000E+00
  1.171875E+00  9.375000E+00  0.000000E+00
  1.171875E+00  9.765625E+00  0.000000E+00
  1.171875E+00  1.015625E+01  0.000000E+00
  1.171875E+00  1.054688E+01  0.000000E+00
  1.171875E+00  1.093750E+01  0.000000E+00
  1.171875E+00  1.132812E+01  0.000000E+00
  1.171875E+00  1.171875E+01  0.000000E+00
  1.171875E+00  1.210938E+01  0.000000E+00
  1.171875E+00  1.250000E+01  0.000000E+00
  1.171875E+00  1.289062E+01  0.000000E+00
  1.171875E+00  1.328125E+01  0.000000E+00
  1.171875E+00  1.367188E+01  0.000000E+00
  1.171875E+00  1.406250E+01  0.000000E+00
  1.171875E+00  1.445312E+01  0.000000E+00
[...]
POINT_DATA   4096
SCALARS CON  float  1
LOOKUP_TABLE default
  4.243379E-01
  4.231939E-01
  4.284474E-01
  4.268203E-01
  4.273147E-01
  4.211882E-01
  4.223041E-01
  4.213821E-01
  4.267534E-01
  4.249268E-01
  4.257873E-01
  4.206968E-01
  4.220331E-01
  4.193926E-01
  4.224169E-01
  4.205547E-01
  4.247939E-01
  4.242484E-01
  4.278648E-01
  4.239924E-01
  4.238936E-01
  4.187242E-01
  4.198845E-01
  4.165725E-01
  4.184449E-01
  4.149216E-01
  4.173781E-01
  4.167089E-01
  4.233230E-01
  4.244169E-01
  4.275401E-01
  4.219066E-01
  4.213353E-01
  4.186320E-01
  4.240124E-01
  4.237386E-01
  4.257606E-01
  4.201636E-01
  4.199453E-01
  4.162216E-01
  4.190235E-01
  4.166228E-01
  4.188649E-01
  4.156666E-01
  4.179556E-01
  4.155590E-01
  4.195018E-01
  4.201970E-01
  4.275156E-01
  4.280094E-01
  4.293764E-01
  4.216712E-01
  4.192825E-01
  4.151864E-01
  4.206336E-01
  4.238099E-01
  4.323741E-01
  4.326167E-01
  4.339177E-01
  4.275469E-01
  4.272028E-01
  4.234935E-01
  4.256690E-01
  4.221304E-01
  4.244569E-01
  4.246386E-01
  4.315579E-01
  4.321643E-01
  4.318416E-01
  4.233020E-01
  4.205880E-01
  4.180973E-01
  4.230050E-01
  4.228307E-01
  4.249550E-01
  4.221063E-01
  4.244643E-01
  4.223447E-01
  4.232818E-01
  4.194164E-01
  4.219585E-01
  4.228146E-01
  4.283871E-01
  4.266870E-01
  4.259484E-01
  4.196340E-01
  4.193161E-01
  4.170891E-01
  4.204612E-01
  4.189432E-01
  4.209040E-01
  4.187797E-01
  4.225398E-01
  4.228149E-01
  4.263336E-01
  4.230799E-01
  4.231004E-01
  4.196913E-01
  4.221347E-01
  4.202950E-01
  4.218299E-01
  4.185079E-01
  4.203924E-01
  4.186890E-01
  4.207035E-01
  4.166875E-01
  4.163361E-01
  4.126409E-01
  4.148728E-01
  4.137011E-01
  4.179100E-01
  4.198832E-01
  4.280517E-01
  4.301114E-01
  4.312224E-01
  4.232220E-01
  4.200566E-01
  4.174326E-01
  4.244281E-01
  4.290724E-01
  4.360533E-01
  4.338995E-01
  4.321114E-01
  4.250428E-01
  4.247627E-01
  4.227561E-01
  4.255185E-01
  4.226616E-01
  4.178630E-01
  4.235392E-01
  4.316362E-01
  4.338639E-01
  4.316355E-01
  4.241746E-01
  4.203411E-01
  4.189766E-01
  4.221724E-01
  4.233920E-01
  4.250342E-01
  4.241394E-01
  4.251022E-01
  4.239476E-01
  4.239029E-01
  4.220168E-01
  4.232125E-01
  4.240636E-01
  4.268129E-01
  4.260988E-01
  4.252606E-01
  4.217808E-01
  4.206845E-01
  4.189206E-01
  4.197734E-01
  4.188289E-01
  4.193056E-01
  4.179970E-01
  4.191791E-01
  4.189528E-01
  4.198331E-01
  4.177982E-01
  4.178761E-01
  4.181680E-01
  4.220401E-01
  4.234441E-01
  4.240190E-01
  4.207105E-01
  4.194437E-01
  4.177869E-01
  4.183833E-01
  4.160262E-01
  4.143075E-01
  4.112127E-01
  4.118630E-01
  4.129244E-01
  4.175927E-01
  4.219190E-01
  4.284236E-01
  4.307329E-01
  4.301559E-01
  4.240749E-01
  4.202948E-01
  4.186510E-01
  4.231842E-01
  4.281537E-01
  4.340400E-01
  4.342734E-01
  4.315954E-01
  4.241945E-01
  4.189941E-01
  4.143210E-01
  4.137840E-01
  4.135037E-01
  4.175139E-01
  4.245324E-01
  4.305897E-01
  4.345038E-01
  4.297221E-01
  4.228093E-01
  4.157950E-01
  4.155779E-01
  4.173190E-01
  4.216428E-01
  4.232679E-01
  4.261215E-01
  4.265355E-01
  4.272247E-01
  4.240517E-01
  4.223568E-01
  4.208597E-01
  4.238568E-01
  4.257069E-01
  4.276330E-01
  4.253084E-01
  4.239196E-01
  4.215561E-01
  4.225298E-01
  4.224131E-01
  4.236012E-01
  4.215143E-01
  4.201856E-01
  4.174173E-01
  4.182915E-01
  4.190288E-01
  4.217363E-01
  4.213316E-01
  4.215665E-01
  4.196543E-01
  4.197965E-01
  4.183975E-01
  4.195771E-01
  4.200545E-01
  4.225649E-01
  4.213412E-01
  4.193552E-01
  4.150127E-01
  4.148677E-01
  4.157397E-01
  4.192296E-01
  4.200286E-01
  4.225746E-01
  4.242305E-01
  4.273446E-01
  4.256305E-01
  4.228491E-01
  4.188163E-01
  4.206062E-01
  4.245052E-01
  4.310886E-01
  4.331038E-01
  4.326101E-01
  4.267189E-01
  4.217432E-01
  4.164683E-01
  4.153352E-01
  4.139079E-01
  4.154762E-01
  4.148102E-01
  4.242609E-01
  4.275292E-01
  4.312438E-01
  4.242257E-01
  4.204703E-01
  4.136945E-01
  4.158000E-01
  4.153941E-01
  4.211430E-01
  4.215521E-01
  4.263423E-01
  4.244136E-01
  4.261332E-01
  4.218460E-01
  4.233706E-01
  4.210376E-01
  4.248693E-01
  4.233603E-01
  4.263546E-01
  4.235302E-01
  4.256293E-01
  4.219725E-01
  4.229263E-01
  4.186322E-01
  4.201859E-01
  4.169871E-01
  4.187547E-01
  4.151776E-01
  4.176371E-01
  4.162419E-01
  4.204507E-01
  4.186464E-01
  4.213544E-01
  4.190552E-01
  4.222687E-01
  4.197943E-01
  4.219219E-01
  4.190473E-01
  4.218175E-01
  4.186909E-01
  4.194024E-01
  4.149354E-01
  4.179937E-01
  4.185816E-01
  4.246595E-01
  4.231528E-01
  4.246746E-01
  4.208106E-01
  4.229573E-01
  4.197366E-01
  4.208886E-01
  4.169907E-01
  4.199440E-01
  4.196549E-01
  4.255189E-01
  4.256183E-01
  4.291364E-01
  4.248358E-01
  4.235821E-01
  4.162291E-01
  4.146974E-01
  4.098381E-01
  4.130915E-01
  4.194739E-01
  4.255119E-01
  4.255465E-01
  4.288201E-01
  4.217752E-01
  4.188687E-01
  4.113280E-01
  4.131655E-01
  4.118763E-01
  4.181867E-01
  4.187729E-01
  4.248462E-01
  4.230533E-01
  4.251326E-01
  4.197228E-01
  4.212035E-01
  4.189874E-01
  4.249235E-01
  4.247246E-01
  4.288997E-01
  4.249707E-01
  4.261654E-01
  4.208495E-01
  4.216274E-01
  4.168836E-01
  4.194278E-01
  4.166715E-01
  4.196831E-01
  4.162720E-01
  4.202732E-01
  4.204624E-01
  4.271129E-01
  4.246715E-01
  4.247153E-01
  4.176397E-01
  4.186515E-01
  4.162387E-01
  4.215697E-01
  4.211260E-01
  4.256257E-01
  4.213468E-01
  4.211273E-01
  4.160756E-01
  4.214950E-01
  4.241990E-01
  4.315103E-01
  4.273024E-01
  4.254017E-01
  4.179674E-01
  4.195444E-01
  4.166024E-01
  4.193874E-01
  4.158784E-01
  4.196740E-01
  4.187657E-01
  4.238750E-01
  4.214241E-01
  4.238409E-01
  4.199834E-01
  4.228645E-01
  4.200262E-01
  4.229679E-01
  4.191371E-01
  4.215573E-01
  4.186310E-01
  4.233189E-01
  4.228463E-01
  4.249779E-01
  4.202261E-01
  4.197313E-01
  4.153783E-01
  4.169236E-01
  4.148988E-01
  4.188465E-01
  4.188873E-01
  4.230862E-01
  4.207075E-01
  4.217137E-01
  4.184173E-01
  4.217656E-01
  4.221260E-01
  4.275232E-01
  4.268999E-01
  4.293675E-01
  4.258436E-01
  4.262217E-01
  4.205459E-01
  4.184580E-01
  4.122047E-01
  4.133681E-01
  4.127429E-01
  4.177421E-01
  4.172550E-01
  4.212558E-01
  4.213421E-01
  4.261080E-01
  4.239247E-01
  4.243199E-01
  4.202252E-01
  4.229511E-01
  4.221405E-01
  4.254469E-01
  4.227489E-01
  4.239374E-01
  4.195792E-01
  4.196025E-01
  4.163252E-01
  4.212130E-01
  4.242611E-01
  4.311737E-01
  4.286503E-01
  4.266714E-01
  4.194502E-01
  4.194830E-01
  4.170700E-01
  4.197169E-01
  4.168731E-01
  4.184196E-01
  4.155944E-01
  4.180546E-01
  4.163435E-01
  4.200493E-01
  4.195882E-01
  4.237487E-01
  4.220010E-01
  4.233723E-01
  4.190629E-01
  4.202303E-01
  4.206833E-01
  4.213620E-01
  4.212449E-01
  4.238511E-01
  4.226286E-01
  4.224464E-01
  4.192617E-01
  4.191290E-01
  4.176031E-01
  4.197966E-01
  4.203030E-01
  4.230847E-01
  4.220319E-01
  4.221269E-01
  4.196571E-01
  4.213848E-01
  4.230569E-01
  4.285708E-01
  4.304509E-01
  4.319205E-01
  4.280606E-01
  4.254622E-01
  4.202588E-01
  4.180109E-01
  4.145195E-01
  4.157786E-01
  4.166017E-01
  4.202068E-01
  4.204633E-01
  4.235073E-01
  4.256960E-01
  4.305975E-01
  4.298192E-01
  4.276425E-01
  4.222169E-01
  4.220578E-01
  4.223637E-01
  4.259287E-01
  4.258523E-01
  4.265497E-01
  4.229525E-01
  4.210696E-01
  4.182816E-01
  4.215843E-01
  4.249100E-01
  4.293762E-01
  4.270571E-01
  4.243480E-01
  4.199270E-01
  4.206729E-01
  4.201593E-01
  4.212767E-01
  4.190022E-01
  4.199333E-01
  4.196046E-01
  4.216121E-01
  4.195534E-01
  4.191035E-01
  4.173759E-01
  4.205719E-01
  4.226578E-01
  4.263376E-01
  4.250043E-01
  4.241469E-01
  4.157250E-01
  4.172560E-01
  4.188488E-01
  4.219264E-01
  4.233279E-01
  4.252925E-01
  4.251720E-01
  4.253100E-01
  4.237829E-01
  4.240412E-01
  4.238172E-01
  4.245180E-01
  4.228053E-01
  4.218464E-01
  4.208503E-01
  4.231431E-01
  4.256127E-01
  4.291372E-01
  4.297758E-01
  4.294915E-01
  4.264563E-01
  4.241641E-01
  4.205324E-01
  4.181191E-01
  4.153897E-01
  4.161562E-01
  4.179874E-01
  4.213481E-01
  4.219784E-01
  4.228293E-01
  4.231055E-01
  4.253439E-01
  4.255486E-01
  4.257823E-01
  4.251908E-01
  4.273111E-01
  4.282666E-01
  4.283550E-01
  4.249623E-01
  4.223829E-01
  4.196743E-01
  4.194499E-01
  4.189236E-01
  4.204439E-01
  4.212595E-01
  4.228628E-01
  4.220150E-01
  4.217441E-01
  4.210151E-01
  4.227431E-01
  4.232529E-01
  4.235924E-01
  4.215458E-01
  4.211738E-01
  4.209836E-01
  4.226289E-01
  4.221716E-01
  4.217176E-01
  4.198770E-01
  4.201415E-01
  4.198252E-01
  4.202277E-01
  4.182712E-01
  4.171260E-01
  4.163644E-01
  4.162271E-01
  4.180988E-01
  4.220824E-01
  4.246154E-01
  4.260933E-01
  4.254430E-01
  4.250754E-01
  4.242477E-01
  4.247768E-01
  4.250764E-01
  4.259056E-01
  4.249851E-01
  4.237030E-01
  4.215470E-01
  4.213738E-01
  4.225810E-01
  4.260427E-01
  4.282521E-01
  4.286235E-01
  4.255242E-01
  4.222983E-01
  4.195052E-01
  4.193052E-01
  4.200211E-01
  4.226718E-01
  4.248186E-01
  4.262594E-01
  4.248090E-01
  4.235389E-01
  4.232559E-01
  4.253777E-01
  4.261244E-01
  4.256018E-01
  4.237548E-01
  4.240255E-01
  4.247283E-01
  4.254385E-01
  4.237271E-01
  4.219052E-01
  4.198436E-01
  4.197028E-01
  4.200343E-01
  4.215855E-01
  4.216321E-01
  4.208295E-01
  4.185765E-01
  4.184470E-01
  4.202309E-01
  4.240685E-01
  4.256215E-01
  4.249957E-01
  4.226047E-01
  4.230110E-01
  4.254958E-01
  4.288341E-01
  4.282295E-01
  4.248232E-01
  4.201193E-01
  4.186547E-01
  4.193296E-01
  4.213906E-01
  4.209913E-01
  4.191979E-01
  4.135681E-01
  4.151708E-01
  4.172596E-01
  4.207400E-01
  4.228758E-01
  4.252487E-01
  4.256553E-01
  4.259740E-01
  4.248282E-01
  4.251455E-01
  4.251456E-01
  4.257199E-01
  4.239443E-01
  4.222719E-01
  4.202500E-01
  4.208070E-01
  4.218538E-01
  4.244547E-01
  4.255023E-01
  4.259418E-01
  4.236574E-01
  4.215182E-01
  4.187968E-01
  4.182874E-01
  4.185995E-01
  4.217763E-01
  4.247725E-01
  4.272277E-01
  4.255617E-01
  4.226629E-01
  4.191571E-01
  4.185959E-01
  4.187331E-01
  4.207223E-01
  4.224753E-01
  4.255251E-01
  4.262730E-01
  4.250170E-01
  4.202685E-01
  4.166184E-01
  4.146694E-01
  4.167322E-01
  4.190528E-01
  4.212016E-01
  4.202230E-01
  4.190442E-01
  4.177013E-01
  4.194933E-01
  4.221738E-01
  4.257812E-01
  4.262126E-01
  4.249350E-01
  4.218011E-01
  4.213266E-01
  4.225886E-01
  4.260871E-01
  4.273194E-01
  4.269899E-01
  4.240907E-01
  4.222716E-01
  4.201565E-01
  4.190260E-01
  4.164093E-01
  4.148339E-01
  4.170359E-01
  4.172884E-01
  4.181333E-01
  4.216560E-01
  4.228796E-01
  4.241123E-01
  4.223703E-01
  4.219162E-01
  4.204542E-01
  4.217643E-01
  4.223402E-01
  4.243704E-01
  4.233603E-01
  4.223153E-01
  4.190718E-01
  4.186497E-01
  4.190318E-01
  4.232030E-01
  4.259639E-01
  4.281050E-01
  4.252959E-01
  4.221951E-01
  4.180955E-01
  4.180549E-01
  4.191266E-01
  4.236697E-01
  4.266393E-01
  4.291230E-01
  4.268155E-01
  4.244100E-01
  4.211935E-01
  4.214724E-01
  4.208048E-01
  4.211107E-01
  4.194951E-01
  4.203970E-01
  4.205196E-01
  4.217178E-01
  4.197510E-01
  4.185235E-01
  4.163689E-01
  4.176785E-01
  4.190424E-01
  4.222226E-01
  4.222608E-01
  4.221239E-01
  4.201205E-01
  4.214533E-01
  4.230526E-01
  4.261140E-01
  4.249638E-01
  4.227834E-01
  4.189046E-01
  4.194534E-01
  4.215920E-01
  4.261715E-01
  4.270516E-01
  4.268849E-01
  4.242084E-01
  4.242398E-01
  4.237700E-01
  4.245990E-01
  4.222444E-01
  4.202861E-01
  4.153710E-01
  4.179532E-01
  4.183471E-01
  4.213292E-01
  4.215800E-01
  4.239776E-01
  4.226012E-01
  4.225797E-01
  4.197168E-01
  4.206554E-01
  4.203093E-01
  4.224505E-01
  4.204929E-01
  4.201250E-01
  4.178149E-01
  4.198529E-01
  4.206808E-01
  4.245543E-01
  4.253891E-01
  4.276973E-01
  4.255468E-01
  4.241758E-01
  4.192556E-01
  4.175993E-01
  4.154649E-01
  4.186284E-01
  4.209403E-01
  4.253840E-01
  4.246771E-01
  4.240064E-01
  4.199153E-01
  4.194585E-01
  4.178509E-01
  4.198519E-01
  4.198581E-01
  4.227150E-01
  4.222278E-01
  4.226129E-01
  4.187883E-01
  4.175685E-01
  4.153976E-01
  4.177918E-01
  4.183966E-01
  4.210608E-01
  4.202098E-01
  4.218219E-01
  4.214598E-01
  4.242837E-01
  4.240744E-01
  4.249947E-01
  4.215245E-01
  4.198551E-01
  4.162687E-01
  4.170315E-01
  4.170295E-01
  4.208343E-01
  4.223599E-01
  4.261180E-01
  4.262683E-01
  4.275228E-01
  4.242677E-01
  4.222009E-01
  4.174446E-01
  4.167298E-01
  4.192390E-01
  4.203127E-01
  4.197380E-01
  4.223174E-01
  4.224600E-01
  4.238941E-01
  4.213789E-01
  4.204442E-01
  4.175585E-01
  4.184531E-01
  4.182457E-01
  4.206866E-01
  4.198282E-01
  4.203280E-01
  4.183265E-01
  4.197275E-01
  4.201110E-01
  4.239059E-01
  4.254586E-01
  4.284492E-01
  4.269539E-01
  4.256912E-01
  4.209717E-01
  4.192787E-01
  4.168983E-01
  4.187978E-01
  4.195806E-01
  4.228661E-01
  4.227346E-01
  4.239620E-01
  4.226631E-01
  4.241914E-01
  4.229675E-01
  4.228799E-01
  4.195344E-01
  4.192252E-01
  4.180149E-01
  4.202727E-01
  4.202575E-01
  4.221628E-01
  4.209589E-01
  4.216270E-01
  4.199415E-01
  4.212929E-01
  4.208252E-01
  4.227547E-01
  4.218258E-01
  4.229003E-01
  4.211875E-01
  4.211848E-01
  4.179713E-01
  4.172382E-01
  4.156261E-01
  4.184932E-01
  4.200394E-01
  4.234070E-01
  4.230247E-01
  4.242757E-01
  4.231440E-01
  4.244910E-01
  4.229491E-01
  4.231742E-01
  4.207742E-01
  4.210259E-01
  4.195620E-01
  4.210495E-01
  4.204613E-01
  4.206569E-01
  4.212079E-01
  4.230800E-01
  4.233172E-01
  4.226699E-01
  4.204609E-01
  4.195673E-01
  4.189099E-01
  4.191583E-01
  4.182681E-01
  4.184874E-01
  4.194307E-01
  4.222134E-01
  4.236644E-01
  4.243752E-01
  4.238925E-01
  4.250650E-01
  4.260177E-01
  4.264031E-01
  4.235662E-01
  4.197776E-01
  4.155276E-01
  4.140123E-01
  4.143455E-01
  4.171593E-01
  4.191395E-01
  4.203270E-01
  4.194368E-01
  4.193299E-01
  4.194486E-01
  4.210211E-01
  4.217801E-01
  4.226110E-01
  4.217888E-01
  4.210616E-01
  4.197851E-01
  4.202205E-01
  4.206822E-01
  4.215490E-01
  4.206066E-01
  4.199082E-01
  4.191697E-01
  4.202345E-01
  4.207127E-01
  4.209226E-01
  4.191113E-01
  4.175451E-01
  4.159535E-01
  4.167055E-01
  4.182388E-01
  4.208452E-01
  4.216860E-01
  4.220042E-01
  4.213075E-01
  4.218709E-01
  4.216632E-01
  4.209748E-01
  4.181573E-01
  4.161979E-01
  4.154332E-01
  4.175881E-01
  4.269655E-01
  4.246061E-01
  4.226002E-01
  4.204762E-01
  4.213144E-01
  4.212591E-01
  4.219585E-01
  4.206832E-01
  4.206128E-01
  4.193462E-01
  4.195475E-01
  4.184642E-01
  4.189790E-01
  4.189084E-01
  4.212234E-01
  4.226369E-01
  4.246536E-01
  4.241755E-01
  4.248849E-01
  4.250351E-01
  4.267538E-01
  4.258230E-01
  4.243173E-01
  4.203608E-01
  4.179466E-01
  4.153387E-01
  4.157101E-01
  4.161868E-01
  4.183907E-01
  4.186508E-01
  4.198573E-01
  4.202182E-01
  4.224129E-01
  4.226029E-01
  4.226422E-01
  4.203225E-01
  4.195951E-01
  4.187345E-01
  4.205991E-01
  4.217296E-01
  4.234411E-01
  4.222858E-01
  4.218019E-01
  4.208197E-01
  4.222508E-01
  4.219139E-01
  4.211810E-01
  4.178754E-01
  4.163806E-01
  4.150830E-01
  4.166057E-01
  4.180205E-01
  4.218950E-01
  4.247032E-01
  4.272943E-01
  4.255555E-01
  4.227719E-01
  4.182259E-01
  4.161401E-01
  4.142366E-01
  4.153154E-01
  4.170648E-01
  4.218145E-01
  4.249873E-01
  4.291052E-01
  4.268635E-01
  4.237130E-01
  4.194202E-01
  4.193843E-01
  4.196419E-01
  4.220464E-01
  4.219440E-01
  4.227435E-01
  4.212674E-01
  4.210074E-01
  4.183573E-01
  4.175904E-01
  4.169249E-01
  4.207742E-01
  4.241192E-01
  4.274026E-01
  4.257163E-01
  4.244405E-01
  4.228019E-01
  4.246983E-01
  4.245015E-01
  4.237533E-01
  4.190990E-01
  4.158637E-01
  4.125027E-01
  4.134835E-01
  4.147483E-01
  4.176902E-01
  4.169610E-01
  4.165150E-01
  4.153222E-01
  4.185419E-01
  4.217266E-01
  4.258048E-01
  4.254402E-01
  4.242921E-01
  4.204361E-01
  4.191534E-01
  4.177689E-01
  4.192795E-01
  4.192003E-01
  4.207193E-01
  4.207638E-01
  4.227973E-01
  4.222017E-01
  4.214819E-01
  4.177289E-01
  4.163151E-01
  4.152100E-01
  4.179774E-01
  4.202868E-01
  4.244084E-01
  4.253681E-01
  4.255239E-01
  4.216370E-01
  4.190104E-01
  4.157024E-01
  4.151752E-01
  4.132275E-01
  4.137160E-01
  4.147343E-01
  4.203945E-01
  4.251897E-01
  4.337120E-01
  4.295227E-01
  4.249946E-01
  4.207878E-01
  4.197083E-01
  4.185476E-01
  4.188336E-01
  4.184907E-01
  4.197734E-01
  4.198354E-01
  4.201273E-01
  4.183650E-01
  4.176129E-01
  4.169134E-01
  4.191313E-01
  4.213264E-01
  4.239674E-01
  4.237230E-01
  4.234519E-01
  4.222948E-01
  4.228742E-01
  4.222235E-01
  4.218441E-01
  4.195827E-01
  4.183048E-01
  4.166426E-01
  4.174637E-01
  4.183144E-01
  4.200217E-01
  4.193454E-01
  4.194471E-01
  4.200788E-01
  4.237130E-01
  4.259239E-01
  4.265952E-01
  4.235231E-01
  4.210408E-01
  4.188583E-01
  4.194980E-01
  4.196402E-01
  4.202964E-01
  4.193916E-01
  4.205976E-01
  4.225064E-01
  4.256965E-01
  4.250196E-01
  4.218661E-01
  4.165760E-01
  4.147412E-01
  4.151840E-01
  4.186026E-01
  4.210124E-01
  4.239834E-01
  4.250034E-01
  4.254390E-01
  4.224755E-01
  4.192776E-01
  4.154993E-01
  4.145052E-01
  4.142312E-01
  4.170534E-01
  4.211751E-01
  4.279857E-01
  4.324103E-01
  4.291155E-01
  4.269580E-01
  4.240400E-01
  4.200520E-01
  4.190450E-01
  4.181684E-01
  4.190612E-01
  4.185152E-01
  4.192471E-01
  4.187812E-01
  4.193060E-01
  4.176034E-01
  4.166583E-01
  4.153783E-01
  4.175504E-01
  4.197116E-01
  4.220757E-01
  4.205459E-01
  4.189032E-01
  4.170058E-01
  4.186566E-01
  4.201231E-01
  4.219283E-01
  4.203508E-01
  4.188126E-01
  4.166207E-01
  4.178670E-01
  4.194739E-01
  4.218225E-01
  4.205815E-01
  4.194897E-01
  4.187860E-01
  4.223134E-01
  4.254617E-01
  4.278697E-01
  4.258569E-01
  4.234241E-01
  4.197956E-01
  4.185193E-01
  4.169758E-01
  4.175503E-01
  4.176396E-01
  4.200303E-01
  4.217463E-01
  4.240724E-01
  4.227886E-01
  4.204087E-01
  4.161325E-01
  4.148454E-01
  4.147959E-01
  4.177786E-01
  4.197881E-01
  4.223157E-01
  4.219753E-01
  4.212849E-01
  4.186828E-01
  4.185942E-01
  4.191285E-01
  4.216347E-01
  4.216628E-01
  4.218003E-01
  4.212805E-01
  4.241667E-01
  4.267855E-01
  4.273509E-01
  4.236471E-01
  4.234449E-01
  4.202832E-01
  4.211431E-01
  4.180920E-01
  4.182989E-01
  4.151271E-01
  4.163356E-01
  4.147820E-01
  4.173867E-01
  4.165576E-01
  4.191530E-01
  4.177705E-01
  4.196700E-01
  4.176291E-01
  4.187373E-01
  4.157450E-01
  4.164173E-01
  4.144986E-01
  4.177939E-01
  4.187351E-01
  4.232434E-01
  4.227374E-01
  4.242928E-01
  4.218018E-01
  4.238534E-01
  4.231274E-01
  4.254877E-01
  4.229677E-01
  4.242122E-01
  4.236360E-01
  4.277682E-01
  4.265062E-01
  4.255988E-01
  4.194836E-01
  4.184706E-01
  4.165895E-01
  4.198983E-01
  4.192890E-01
  4.212047E-01
  4.192291E-01
  4.219519E-01
  4.221987E-01
  4.253681E-01
  4.221391E-01
  4.200425E-01
  4.143915E-01
  4.147040E-01
  4.138773E-01
  4.176250E-01
  4.176118E-01
  4.209766E-01
  4.206017E-01
  4.234407E-01
  4.221438E-01
  4.246185E-01
  4.242292E-01
  4.277717E-01
  4.267764E-01
  4.282694E-01
  4.259218E-01
  4.278536E-01
  4.262750E-01
  4.204666E-01
  4.190135E-01
  4.222714E-01
  4.192989E-01
  4.217611E-01
  4.189343E-01
  4.213040E-01
  4.173181E-01
  4.182924E-01
  4.144186E-01
  4.174061E-01
  4.160400E-01
  4.204726E-01
  4.192715E-01
  4.231369E-01
  4.204019E-01
  4.213760E-01
  4.154074E-01
  4.152498E-01
  4.120948E-01
  4.175332E-01
  4.191315E-01
  4.251144E-01
  4.227626E-01
  4.239217E-01
  4.199763E-01
  4.235101E-01
  4.226871E-01
  4.262374E-01
  4.220924E-01
  4.228850E-01
  4.198636E-01
  4.240837E-01
  4.224089E-01
  4.243599E-01
  4.196447E-01
  4.208112E-01
  4.173121E-01
  4.195868E-01
  4.165697E-01
  4.198187E-01
  4.186931E-01
  4.235148E-01
  4.220703E-01
  4.245448E-01
  4.200444E-01
  4.205845E-01
  4.162186E-01
  4.182904E-01