# vtk DataFile Version 2.0
title
ASCII
DATASET STRUCTURED_GRID
DIMENSIONS   64   64    1
POINTS   4096  float
  0.000000E+00  0.000000E+00  0.000000E+00
  0.000000E+00  3.906250E-01  0.000000E+00
  0.000000E+00  7.812500E-01  0.000000E+00
  0.000000E+00  1.171875E+00  0.000000E+00
  0.000000E+00  1.562500E+00  0.000000E+00
  0.000000E+00  1.953125E+00  0.000000E+00
  0.000000E+00  2.343750E+00  0.000000E+00
  0.000000E+00  2.734375E+00  0.000000E+00
  0.000000E+00  3.125000E+00  0.000000E+00
  0.000000E+00  3.515625E+00  0.000000E+00
  0.000000E+00  3.906250E+00  0.000000E+00
  0.000000E+00  4.296875E+00  0.000000E+00
  0.000000E+00  4.687500E+00  0.000000E+00
  0.000000E+00  5.078125E+00  0.000000E+00
  0.000000E+00  5.468750E+00  0.000000E+00
  0.000000E+00  5.859375E+00  0.000000E+00
  0.000000E+00  6.250000E+00  0.000000E+00
  0.000000E+00  6.640625E+00  0.000000E+00
  0.000000E+00  7.031250E+00  0.000000E+00
  0.000000E+00  7.421875E+00  0.000000E+00
  0.000000E+00  7.812500E+00  0.000000E+00
  0.000000E+00  8.203125E+00  0.000000E+00
  0.000000E+00  8.593750E+00  0.000000E+00
  0.000000E+00  8.984375E+00  0.000000E+00
  0.000000E+00  9.375000E+00  0.000000E+00
  0.000000E+00  9.765625E+00  0.000000E+00
  0.000000E+00  1.015625E+01  0.000000E+00
  0.000000E+00  1.054688E+01  0.000000E+00
  0.000000E+00  1.093750E+01  0.000000E+00
  0.000000E+00  1.132812E+01  0.000000E+00
  0.000000E+00  1.171875E+01  0.000000E+00
  0.000000E+00  1.210938E+01  0.000000E+00
  0.000000E+00  1.250000E+01  0.000000E+00
  0.000000E+00  1.289062E+01  0.000000E+00
  0.000000E+00  1.328125E+01  0.000000E+00
  0.000000E+00  1.367188E+01  0.000000E+00
  0.000000E+00  1.406250E+01  0.000000E+00
  0.000000E+00  1.445312E+01  0.000000E+00
  0.000000E+00  1.484375E+01  0.000000E+00
  0.000000E+00  1.523438E+01  0.000000E+00
  0.000000E+00  1.562500E+01  0.000000E+00
  0.000000E+00  1.601562E+01  0.000000E+00
  0.000000E+00  1.640625E+01  0.000000E+00
  0.000000E+00  1.679688E+01  0.000000E+00
  0.000000E+00  1.718750E+01  0.000000E+00
  0.000000E+00  1.757812E+01  0.000000E+00
  0.000000E+00  1.796875E+01  0.000000E+00
  0.000000E+00  1.835938E+01  0.000000E+00
  0.000000E+00  1.875000E+01  0.000000E+00
  0.000000E+00  1.914062E+01  0.000000E+00
  0.000000E+00  1.953125E+01  0.000000E+00
  0.000000E+00  1.992188E+01  0.000000E+00
  0.000000E+00  2.031250E+01  0.000000E+00
  0.000000E+00  2.070312E+01  0.000000E+00
  0.000000E+00  2.109375E+01  0.000000E+00
  0.000000E+00  2.148438E+01  0.000000E+00
  0.000000E+00  2.187500E+01  0.000000E+00
  0.000000E+00  2.226562E+01  0.000000E+00
  0.000000E+00  2.265625E+01  0.000000E+00
  0.000000E+00  2.304688E+01  0.000000E+00
  0.000000E+00  2.343750E+01  0.000000E+00
  0.000000E+00  2.382812E+01  0.000000E+00
  0.000000E+00  2.421875E+01  0.000000E+00
  0.000000E+00  2.460938E+01  0.000000E+00
  3.906250E-01  0.000000E+00  0.000000E+00
  3.906250E-01  3.906250E-01  0.000000E+00
  3.906250E-01  7.812500E-01  0.000000E+00
  3.906250E-01  1.171875E+00  0.000000E+00
  3.906250E-01  1.562500E+00  0.000000E+00
  3.906250E-01  1.953125E+00  0.000000E+00
  3.906250E-01  2.343750E+00  0.000000E+00
  3.906250E-01  2.734375E+00  0.000000E+00
  3.906250E-01  3.125000E+00  0.000000E+00
  3.906250E-01  3.515625E+00  0.000000E+00
  3.906250E-01  3.906250E+00  0.000000E+00
  3.906250E-01  4.296875E+00  0.000000E+00
  3.906250E-01  4.687500E+00  0.000000E+00
  3.906250E-01  5.078125E+00  0.000000E+00
  3.906250E-01  5.468750E+00  0.000000E+00
  3.906250E-01  5.859375E+00  0.000000E+00
  3.906250E-01  6.250000E+00  0.000000E+00
  3.906250E-01  6.640625E+00  0.000000E+00
  3.906250E-01  7.031250E+00  0.000000E+00
  3.906250E-01  7.421875E+00  0.000000E+00
  3.906250E-01  7.812500E+00  0.000000E+00
  3.906250E-01  8.203125E+00  0.000000E+00
  3.906250E-01  8.593750E+00  0.000000E+00
  3.906250E-01  8.984375E+00  0.000000E+00
  3.906250E-01  9.375000E+00  0.000000E+00
  3.906250E-01  9.765625E+00  0.000000E+00
  3.906250E-01  1.015625E+01  0.000000E+00
  3.906250E-01  1.054688E+01  0.000000E+00
  3.906250E-01  1.093750E+01  0.000000E+00
  3.906250E-01  1.132812E+01  0.000000E+00
  3.906250E-01  1.171875E+01  0.000000E+00
  3.906250E-01  1.210938E+01  0.000000E+00
  3.906250E-01  1.250000E+01  0.000000E+00
  3.906250E-01  1.289062E+01  0.000000E+00
  3.906250E-01  1.328125E+01  0.000000E+00
  3.906250E-01  1.367188E+01  0.000000E+00
  3.906250E-01  1.406250E+01  0.000000E+00
  3.906250E-01  1.445312E+01  0.000000E+00
  3.906250E-01  1.484375E+01  0.000000E+00
  3.906250E-01  1.523438E+01  0.000000E+00
  3.906250E-01  1.562500E+01  0.000000E+00
  3.906250E-01  1.601562E+01  0.000000E+00
  3.906250E-01  1.640625E+01  0.000000E+00
  3.906250E-01  1.679688E+01  0.000000E+00
  3.906250E-01  1.718750E+01  0.000000E+00
  3.906250E-01  1.757812E+01  0.000000E+00
  3.906250E-01  1.796875E+01  0.000000E+00
  3.906250E-01  1.835938E+01  0.000000E+00
  3.906250E-01  1.875000E+01  0.000000E+00
  3.906250E-01  1.914062E+01  0.000000E+00
  3.906250E-01  1.953125E+01  0.000000E+00
  3.906250E-01  1.992188E+01  0.000000E+00
  3.906250E-01  2.031250E+01  0.000000E+00
  3.906250E-01  2.070312E+01  0.000000E+00
  3.906250E-01  2.109375E+01  0.000000E+00
  3.906250E-01  2.148438E+01  0.000000E+00
  3.906250E-01  2.187500E+01  0.000000E+00
  3.906250E-01  2.226562E+01  0.000000E+00
  3.906250E-01  2.265625E+01  0.000000E+00
  3.906250E-01  2.304688E+01  0.000000E+00
  3.906250E-01  2.343750E+01  0.000000E+00
  3.906250E-01  2.382812E+01  0.000000E+00
  3.906250E-01  2.421875E+01  0.000000E+00
  3.906250E-01  2.460938E+01  0.000000E+00
  7.812500E-01  0.000000E+00  0.000000E+00
  7.812500E-01  3.906250E-01  0.000000E+00
  7.812500E-01  7.812500E-01  0.000000E+00
  7.812500E-01  1.171875E+00  0.000000E+00
  7.812500E-01  1.562500E+00  0.000000E+00
  7.812500E-01  1.953125E+00  0.000000E+00
  7.812500E-01  2.343750E+00  0.000000E+00
  7.812500E-01  2.734375E+00  0.000000E+00
  7.812500E-01  3.125000E+00  0.000000E+00
  7.812500E-01  3.515625E+00  0.000000E+00
  7.812500E-01  3.906250E+00  0.000000E+00
  7.812500E-01  4.296875E+00  0.000000E+00
  7.812500E-01  4.687500E+00  0.000000E+00
  7.812500E-01  5.078125E+00  0.000000E+00
  7.812500E-01  5.468750E+00  0.000000E+00
  7.812500E-01  5.859375E+00  0.000000E+00
  7.812500E-01  6.250000E+00  0.000000E+00
  7.812500E-01  6.640625E+00  0.000000E+00
  7.812500E-01  7.031250E+00  0.000000E+00
  7.812500E-01  7.421875E+00  0.000000E+00
  7.812500E-01  7.812500E+00  0.000000E+00
  7.812500E-01  8.203125E+00  0.000000E+00
  7.812500E-01  8.593750E+00  0.000000E+00
  7.812500E-01  8.984375E+00  0.000000E+00
  7.812500E-01  9.375000E+00  0.000000E+00
  7.812500E-01  9.765625E+00  0.000000E+00
  7.812500E-01  1.015625E+01  0.000000E+00
  7.812500E-01  1.054688E+01  0.000000E+00
  7.812500E-01  1.093750E+01  0.000000E+00
  7.812500E-01  1.132812E+01  0.000000E+00
  7.812500E-01  1.171875E+01  0.000000E+00
  7.812500E-01  1.210938E+01  0.000000E+00
  7.812500E-01  1.250000E+01  0.000000E+00
  7.812500E-01  1.289062E+01  0.000000E+00
  7.812500E-01  1.328125E+01  0.000000E+00
  7.812500E-01  1.367188E+01  0.000000E+00
  7.812500E-01  1.406250E+01  0.000000E+00
  7.812500E-01  1.445312E+01  0.000000E+00
  7.812500E-01  1.484375E+01  0.000000E+00
  7.812500E-01  1.523438E+01  0.000000E+00
  7.812500E-01  1.562500E+01  0.000000E+00
  7.812500E-01  1.601562E+01  0.000000E+00
  7.812500E-01  1.640625E+01  0.000000E+00
  7.812500E-01  1.679688E+01  0.000000E+00
  7.812500E-01  1.718750E+01  0.000000E+00
  7.812500E-01  1.757812E+01  0.000000E+00
  7.812500E-01  1.796875E+01  0.000000E+00
  7.812500E-01  1.835938E+01  0.000000E+00
  7.812500E-01  1.875000E+01  0.000000E+00
  7.812500E-01  1.914062E+01  0.000000E+00
  7.812500E-01  1.953125E+01  0.000000E+00
  7.812500E-01  1.992188E+01  0.000000E+00
  7.812500E-01  2.031250E+01  0.000000E+00
  7.812500E-01  2.070312E+01  0.000000E+00
  7.812500E-01  2.109375E+01  0.000000E+00
  7.812500E-01  2.148438E+01  0.000000E+00
  7.812500E-01  2.187500E+01  0.000000E+00
  7.812500E-01  2.226562E+01  0.000000E+00
  7.812500E-01  2.265625E+01  0.000000E+00
  7.812500E-01  2.304688E+01  0.000000E+00
  7.812500E-01  2.343750E+01  0.000000E+00
  7.812500E-01  2.382812E+01  0.000000E+00
  7.812500E-01  2.421875E+01  0.000000E+00
  7.812500E-01  2.460938E+01  0.000000E+00
  1.171875E+00  0.000000E+00  0.000000E+00
  1.171875E+00  3.906250E-01  0.000000E+00
  1.171875E+00  7.812500E-01  0.000000E+00
  1.171875E+00  1.171875E+00  0.000000E+00
  1.171875E+00  1.562500E+00  0.000000E+00
  1.171875E+00  1.953125E+00  0.000000E+00
  1.171875E+00  2.343750E+00  0.000000E+00
  1.171875E+00  2.734375E+00  0.000000E+00
  1.171875E+00  3.125000E+00  0.000000E+00
  1.171875E+00  3.515625E+00  0.000000E+00
  1.171875E+00  3.906250E+00  0.000000E+00
  1.171875E+00  4.296875E+00  0.000000E+00
  1.171875E+00  4.687500E+00  0.000000E+00
  1.171875E+00  5.078125E+00  0.000000E+00
  1.171875E+00  5.468750E+00  0.000000E+00
  1.171875E+00  5.859375E+00  0.000000E+00
  1.171875E+00  6.250000E+00  0.000000E+00
  1.171875E+00  6.640625E+00  0.000000E+00
  1.171875E+00  7.031250E+00  0.000000E+00
  1.171875E+00  7.421875E+00  0.000000E+00
  1.171875E+00  7.812500E+00  0.000000E+00
  1.171875E+00  8.203125E+00  0.000000E+00
  1.171875E+00  8.593750E+00  0.000000E+00
  1.171875E+00  8.984375E+00  0.000000E+00
  1.171875E+00  9.375000E+00  0.000000E+00
  1.171875E+00  9.765625E+00  0.000000E+00
  1.171875E+00  1.015625E+01  0.000000E+00
  1.171875E+00  1.054688E+01  0.000000E+00
  1.171875E+00  1.093750E+01  0.000000E+00
  1.171875E+00  1.132812E+01  0.000000E+00
  1.171875E+00  1.171875E+01  0.000000E+00
  1.171875E+00  1.210938E+01  0.000000E+00
  1.171875E+00  1.250000E+01  0.000000E+00
  1.171875E+00  1.289062E+01  0.000000E+00
  1.171875E+00  1.328125E+01  0.000000E+00
  1.171875E+00  1.367188E+01  0.000000E+00
  1.171875E+00  1.406250E+01  0.000000E+00
  1.171875E+00  1.445312E+01  0.000000E+00
[...]
POINT_DATA   4096
SCALARS CON  float  1
LOOKUP_TABLE default
  4.074707E-01
  4.067295E-01
  4.117516E-01
  4.096238E-01
  4.103379E-01
  4.047244E-01
  4.061904E-01
  4.048294E-01
  4.097301E-01
  4.077763E-01
  4.091060E-01
  4.041635E-01
  4.052888E-01
  4.022430E-01
  4.055185E-01
  4.041617E-01
  4.087536E-01
  4.077985E-01
  4.109612E-01
  4.068470E-01
  4.070113E-01
  4.019665E-01
  4.031602E-01
  3.995608E-01
  4.013139E-01
  3.978200E-01
  4.007229E-01
  4.002154E-01
  4.065210E-01
  4.068144E-01
  4.098232E-01
  4.048541E-01
  4.052064E-01
  4.024478E-01
  4.071803E-01
  4.063108E-01
  4.086091E-01
  4.035068E-01
  4.036281E-01
  3.996172E-01
  4.020852E-01
  3.993975E-01
  4.017144E-01
  3.984502E-01
  4.007396E-01
  3.984479E-01
  4.029899E-01
  4.040275E-01
  4.112239E-01
  4.111582E-01
  4.125207E-01
  4.050556E-01
  4.028492E-01
  3.984868E-01
  4.038912E-01
  4.070759E-01
  4.156917E-01
  4.157453E-01
  4.172063E-01
  4.108696E-01
  4.101860E-01
  4.055384E-01
  4.073099E-01
  4.042163E-01
  4.079355E-01
  4.085425E-01
  4.147237E-01
  4.144046E-01
  4.141135E-01
  4.065711E-01
  4.045124E-01
  4.016762E-01
  4.058190E-01
  4.056372E-01
  4.084503E-01
  4.060299E-01
  4.079098E-01
  4.051607E-01
  4.061750E-01
  4.030568E-01
  4.059537E-01
  4.063020E-01
  4.109553E-01
  4.088961E-01
  4.085545E-01
  4.029925E-01
  4.030680E-01
  4.007202E-01
  4.036473E-01
  4.019191E-01
  4.040217E-01
  4.021567E-01
  4.057626E-01
  4.056299E-01
  4.090317E-01
  4.063494E-01
  4.069952E-01
  4.035703E-01
  4.052951E-01
  4.028821E-01
  4.044831E-01
  4.016868E-01
  4.037945E-01
  4.018578E-01
  4.035340E-01
  3.996278E-01
  3.996113E-01
  3.960622E-01
  3.980986E-01
  3.969515E-01
  4.014799E-01
  4.035368E-01
  4.109758E-01
  4.121826E-01
  4.133084E-01
  4.062476E-01
  4.038086E-01
  4.011930E-01
  4.078256E-01
  4.123497E-01
  4.193702E-01
  4.173347E-01
  4.157370E-01
  4.088326E-01
  4.081659E-01
  4.053033E-01
  4.074837E-01
  4.051183E-01
  4.015496E-01
  4.072727E-01
  4.144433E-01
  4.160985E-01
  4.139914E-01
  4.074118E-01
  4.037763E-01
  4.021000E-01
  4.047028E-01
  4.061647E-01
  4.082614E-01
  4.077682E-01
  4.083221E-01
  4.068230E-01
  4.066005E-01
  4.051287E-01
  4.063835E-01
  4.070982E-01
  4.093310E-01
  4.086150E-01
  4.079503E-01
  4.050204E-01
  4.040846E-01
  4.023643E-01
  4.027638E-01
  4.016423E-01
  4.020738E-01
  4.011867E-01
  4.023777E-01
  4.020642E-01
  4.027207E-01
  4.011078E-01
  4.014647E-01
  4.017258E-01
  4.048111E-01
  4.058231E-01
  4.064824E-01
  4.038764E-01
  4.027485E-01
  4.008465E-01
  4.008197E-01
  3.985251E-01
  3.971784E-01
  3.947233E-01
  3.954229E-01
  3.964924E-01
  4.009166E-01
  4.050372E-01
  4.107324E-01
  4.125535E-01
  4.120867E-01
  4.070072E-01
  4.037418E-01
  4.021632E-01
  4.063114E-01
  4.113077E-01
  4.170880E-01
  4.174580E-01
  4.149271E-01
  4.080431E-01
  4.027608E-01
  3.977137E-01
  3.966805E-01
  3.967731E-01
  4.014872E-01
  4.083461E-01
  4.134614E-01
  4.167679E-01
  4.122153E-01
  4.061542E-01
  3.992974E-01
  3.985072E-01
  3.995157E-01
  4.039930E-01
  4.062148E-01
  4.094575E-01
  4.094442E-01
  4.096886E-01
  4.064518E-01
  4.052217E-01
  4.039163E-01
  4.068439E-01
  4.084461E-01
  4.105262E-01
  4.084187E-01
  4.072235E-01
  4.046413E-01
  4.053365E-01
  4.048171E-01
  4.058768E-01
  4.038699E-01
  4.030928E-01
  4.008152E-01
  4.019377E-01
  4.023660E-01
  4.048011E-01
  4.042084E-01
  4.044405E-01
  4.022667E-01
  4.023316E-01
  4.011409E-01
  4.028467E-01
  4.032832E-01
  4.052590E-01
  4.034671E-01
  4.017885E-01
  3.980787E-01
  3.982723E-01
  3.987744E-01
  4.021100E-01
  4.031802E-01
  4.061051E-01
  4.073051E-01
  4.097234E-01
  4.078372E-01
  4.058254E-01
  4.023503E-01
  4.040399E-01
  4.072813E-01
  4.135659E-01
  4.155579E-01
  4.153678E-01
  4.098106E-01
  4.053656E-01
  4.002458E-01
  3.989892E-01
  3.973149E-01
  3.991600E-01
  3.984095E-01
  4.073564E-01
  4.102107E-01
  4.138976E-01
  4.075339E-01
  4.041453E-01
  3.972289E-01
  3.986939E-01
  3.980402E-01
  4.037865E-01
  4.044103E-01
  4.090887E-01
  4.071143E-01
  4.087741E-01
  4.047125E-01
  4.063133E-01
  4.041272E-01
  4.080010E-01
  4.068278E-01
  4.100139E-01
  4.071722E-01
  4.087113E-01
  4.046295E-01
  4.053650E-01
  4.012093E-01
  4.026304E-01
  3.994095E-01
  4.013598E-01
  3.984567E-01
  4.012086E-01
  3.996244E-01
  4.032529E-01
  4.013726E-01
  4.042063E-01
  4.020765E-01
  4.051576E-01
  4.029109E-01
  4.053403E-01
  4.025794E-01
  4.047450E-01
  4.011566E-01
  4.019073E-01
  3.980513E-01
  4.011870E-01
  4.013667E-01
  4.069920E-01
  4.059994E-01
  4.083352E-01
  4.049046E-01
  4.065970E-01
  4.029632E-01
  4.039322E-01
  4.001167E-01
  4.028063E-01
  4.023657E-01
  4.081489E-01
  4.084170E-01
  4.118820E-01
  4.076908E-01
  4.065501E-01
  3.994788E-01
  3.979918E-01
  3.933274E-01
  3.966662E-01
  4.026613E-01
  4.084988E-01
  4.083778E-01
  4.116815E-01
  4.051571E-01
  4.025767E-01
  3.950205E-01
  3.963981E-01
  3.949135E-01
  4.011969E-01
  4.019329E-01
  4.078393E-01
  4.059445E-01
  4.080268E-01
  4.030050E-01
  4.047201E-01
  4.025920E-01
  4.083315E-01
  4.081969E-01
  4.124787E-01
  4.085929E-01
  4.093535E-01
  4.037320E-01
  4.045195E-01
  4.001627E-01
  4.026069E-01
  3.994551E-01
  4.022161E-01
  3.993778E-01
  4.038736E-01
  4.039086E-01
  4.097897E-01
  4.072459E-01
  4.078356E-01
  4.013677E-01
  4.022610E-01
  3.996737E-01
  4.049518E-01
  4.045141E-01
  4.085526E-01
  4.041398E-01
  4.043945E-01
  4.000718E-01
  4.051233E-01
  4.066338E-01
  4.130716E-01
  4.096236E-01
  4.091414E-01
  4.024945E-01
  4.035208E-01
  3.997952E-01
  4.022010E-01
  3.988962E-01
  4.026860E-01
  4.017574E-01
  4.068892E-01
  4.047658E-01
  4.072053E-01
  4.031340E-01
  4.055410E-01
  4.025201E-01
  4.054173E-01
  4.018862E-01
  4.045394E-01
  4.013212E-01
  4.060871E-01
  4.056471E-01
  4.082440E-01
  4.037093E-01
  4.032401E-01
  3.984877E-01
  4.000611E-01
  3.982257E-01
  4.024505E-01
  4.021729E-01
  4.061530E-01
  4.037405E-01
  4.052190E-01
  4.020692E-01
  4.053806E-01
  4.053114E-01
  4.105999E-01
  4.099756E-01
  4.127640E-01
  4.091011E-01
  4.092116E-01
  4.032737E-01
  4.017620E-01
  3.961352E-01
  3.974525E-01
  3.959831E-01
  4.004161E-01
  3.999925E-01
  4.045417E-01
  4.043922E-01
  4.087194E-01
  4.065217E-01
  4.078554E-01
  4.042555E-01
  4.067985E-01
  4.053179E-01
  4.085695E-01
  4.058648E-01
  4.070143E-01
  4.024481E-01
  4.029823E-01
  4.002575E-01
  4.051822E-01
  4.070748E-01
  4.129981E-01
  4.104394E-01
  4.096341E-01
  4.032028E-01
  4.032567E-01
  4.000921E-01
  4.023937E-01
  3.995062E-01
  4.014242E-01
  3.988301E-01
  4.017483E-01
  4.002136E-01
  4.039219E-01
  4.028145E-01
  4.063250E-01
  4.039643E-01
  4.053767E-01
  4.012889E-01
  4.028891E-01
  4.036805E-01
  4.047129E-01
  4.044097E-01
  4.070112E-01
  4.055123E-01
  4.053801E-01
  4.019612E-01
  4.020102E-01
  4.005595E-01
  4.031403E-01
  4.035437E-01
  4.063691E-01
  4.051265E-01
  4.054587E-01
  4.029107E-01
  4.046792E-01
  4.058928E-01
  4.112066E-01
  4.128353E-01
  4.147069E-01
  4.109824E-01
  4.085034E-01
  4.030052E-01
  4.011659E-01
  3.981403E-01
  3.997574E-01
  3.998822E-01
  4.030305E-01
  4.032660E-01
  4.069095E-01
  4.087562E-01
  4.130843E-01
  4.120400E-01
  4.108443E-01
  4.059808E-01
  4.057302E-01
  4.052180E-01
  4.086957E-01
  4.085729E-01
  4.093374E-01
  4.055258E-01
  4.042823E-01
  4.021044E-01
  4.056395E-01
  4.079511E-01
  4.116479E-01
  4.091622E-01
  4.072913E-01
  4.031335E-01
  4.037159E-01
  4.025750E-01
  4.038974E-01
  4.019918E-01
  4.034085E-01
  4.028455E-01
  4.048844E-01
  4.028726E-01
  4.028417E-01
  4.008504E-01
  4.036412E-01
  4.049840E-01
  4.085569E-01
  4.072261E-01
  4.069009E-01
  3.990659E-01
  4.005752E-01
  4.020132E-01
  4.049746E-01
  4.062359E-01
  4.079647E-01
  4.075885E-01
  4.078006E-01
  4.066396E-01
  4.071691E-01
  4.068382E-01
  4.073926E-01
  4.057669E-01
  4.049867E-01
  4.038846E-01
  4.058731E-01
  4.081024E-01
  4.116488E-01
  4.125109E-01
  4.125816E-01
  4.097062E-01
  4.071690E-01
  4.030866E-01
  4.006397E-01
  3.983547E-01
  3.994712E-01
  4.010940E-01
  4.041592E-01
  4.049586E-01
  4.061954E-01
  4.062886E-01
  4.078996E-01
  4.078888E-01
  4.086602E-01
  4.085186E-01
  4.104105E-01
  4.108823E-01
  4.110017E-01
  4.079656E-01
  4.054473E-01
  4.023827E-01
  4.019870E-01
  4.017655E-01
  4.037778E-01
  4.047470E-01
  4.061907E-01
  4.051987E-01
  4.049949E-01
  4.042365E-01
  4.056860E-01
  4.058994E-01
  4.063477E-01
  4.046743E-01
  4.044773E-01
  4.039821E-01
  4.052279E-01
  4.047484E-01
  4.047483E-01
  4.033581E-01
  4.037033E-01
  4.031012E-01
  4.032509E-01
  4.012801E-01
  4.003309E-01
  3.999804E-01
  3.997627E-01
  4.013649E-01
  4.048717E-01
  4.073987E-01
  4.089331E-01
  4.084129E-01
  4.078549E-01
  4.070619E-01
  4.076129E-01
  4.081159E-01
  4.088698E-01
  4.079406E-01
  4.064654E-01
  4.043710E-01
  4.042607E-01
  4.057763E-01
  4.092668E-01
  4.115656E-01
  4.119748E-01
  4.091609E-01
  4.057444E-01
  4.024907E-01
  4.017082E-01
  4.024878E-01
  4.052873E-01
  4.075779E-01
  4.089869E-01
  4.080737E-01
  4.073060E-01
  4.070791E-01
  4.084424E-01
  4.087938E-01
  4.084028E-01
  4.069976E-01
  4.070593E-01
  4.075054E-01
  4.082015E-01
  4.069812E-01
  4.052392E-01
  4.029959E-01
  4.024265E-01
  4.027035E-01
  4.042637E-01
  4.047080E-01
  4.043626E-01
  4.027422E-01
  4.026602E-01
  4.039956E-01
  4.068946E-01
  4.080893E-01
  4.077411E-01
  4.061052E-01
  4.065170E-01
  4.083113E-01
  4.106515E-01
  4.100359E-01
  4.074045E-01
  4.038258E-01
  4.027395E-01
  4.032819E-01
  4.048037E-01
  4.042467E-01
  4.024865E-01
  3.967051E-01
  3.982444E-01
  4.001920E-01
  4.037685E-01
  4.061373E-01
  4.086587E-01
  4.089311E-01
  4.091524E-01
  4.080412E-01
  4.084018E-01
  4.081928E-01
  4.085750E-01
  4.067968E-01
  4.052957E-01
  4.033508E-01
  4.040240E-01
  4.052633E-01
  4.080735E-01
  4.091131E-01
  4.095143E-01
  4.072048E-01
  4.049863E-01
  4.019414E-01
  4.011506E-01
  4.013617E-01
  4.045473E-01
  4.073957E-01
  4.098460E-01
  4.085852E-01
  4.063627E-01
  4.031085E-01
  4.022874E-01
  4.020718E-01
  4.040721E-01
  4.058659E-01
  4.086945E-01
  4.090830E-01
  4.079086E-01
  4.036586E-01
  4.004856E-01
  3.984188E-01
  3.998476E-01
  4.014361E-01
  4.034040E-01
  4.028961E-01
  4.025465E-01
  4.017571E-01
  4.035685E-01
  4.057031E-01
  4.086575E-01
  4.087490E-01
  4.077258E-01
  4.050424E-01
  4.047217E-01
  4.055221E-01
  4.084041E-01
  4.094748E-01
  4.097570E-01
  4.076558E-01
  4.061961E-01
  4.037740E-01
  4.021921E-01
  3.993584E-01
  3.978935E-01
  3.999385E-01
  4.003786E-01
  4.010402E-01
  4.046426E-01
  4.059678E-01
  4.076020E-01
  4.058829E-01
  4.054512E-01
  4.037704E-01
  4.051102E-01
  4.054602E-01
  4.073970E-01
  4.061531E-01
  4.052720E-01
  4.021536E-01
  4.020934E-01
  4.024734E-01
  4.065380E-01
  4.087876E-01
  4.108248E-01
  4.081487E-01
  4.055759E-01
  4.015730E-01
  4.015573E-01
  4.023648E-01
  4.067845E-01
  4.093032E-01
  4.116917E-01
  4.096133E-01
  4.079971E-01
  4.050381E-01
  4.051783E-01
  4.040423E-01
  4.044585E-01
  4.029238E-01
  4.038000E-01
  4.034034E-01
  4.045012E-01
  4.027142E-01
  4.021057E-01
  4.001620E-01
  4.014082E-01
  4.020581E-01
  4.046865E-01
  4.044598E-01
  4.048907E-01
  4.034050E-01
  4.049846E-01
  4.059955E-01
  4.085302E-01
  4.071513E-01
  4.056137E-01
  4.023540E-01
  4.032829E-01
  4.049998E-01
  4.092151E-01
  4.099242E-01
  4.102224E-01
  4.077261E-01
  4.076697E-01
  4.065712E-01
  4.070959E-01
  4.046132E-01
  4.030164E-01
  3.982303E-01
  4.006249E-01
  4.010747E-01
  4.042792E-01
  4.047476E-01
  4.071251E-01
  4.057313E-01
  4.058700E-01
  4.033098E-01
  4.042013E-01
  4.034089E-01
  4.050869E-01
  4.031986E-01
  4.032094E-01
  4.011472E-01
  4.030262E-01
  4.035929E-01
  4.072357E-01
  4.079432E-01
  4.101613E-01
  4.081467E-01
  4.070733E-01
  4.025349E-01
  4.011172E-01
  3.990774E-01
  4.020520E-01
  4.039876E-01
  4.080469E-01
  4.073425E-01
  4.069430E-01
  4.030581E-01
  4.024508E-01
  4.006938E-01
  4.027948E-01
  4.030806E-01
  4.059167E-01
  4.051376E-01
  4.052709E-01
  4.016123E-01
  4.007555E-01
  3.988390E-01
  4.011004E-01
  4.014187E-01
  4.038610E-01
  4.030233E-01
  4.046405E-01
  4.041881E-01
  4.067845E-01
  4.064624E-01
  4.074511E-01
  4.043049E-01
  4.029836E-01
  3.996939E-01
  4.006123E-01
  4.007605E-01
  4.046319E-01
  4.061402E-01
  4.096527E-01
  4.093782E-01
  4.100857E-01
  4.065335E-01
  4.045505E-01
  4.001707E-01
  3.996535E-01
  4.025545E-01
  4.032957E-01
  4.027689E-01
  4.050709E-01
  4.052479E-01
  4.065332E-01
  4.043622E-01
  4.035517E-01
  4.010326E-01
  4.017715E-01
  4.014726E-01
  4.034588E-01
  4.026931E-01
  4.032507E-01
  4.016206E-01
  4.028724E-01
  4.032954E-01
  4.068607E-01
  4.085159E-01
  4.112632E-01
  4.098950E-01
  4.085867E-01
  4.041648E-01
  4.023818E-01
  4.001990E-01
  4.020026E-01
  4.028992E-01
  4.058483E-01
  4.057312E-01
  4.067864E-01
  4.055240E-01
  4.065497E-01
  4.052521E-01
  4.052710E-01
  4.026249E-01
  4.024372E-01
  4.012352E-01
  4.030714E-01
  4.030495E-01
  4.047124E-01
  4.036721E-01
  4.044006E-01
  4.032219E-01
  4.046267E-01
  4.042249E-01
  4.057414E-01
  4.047394E-01
  4.055231E-01
  4.039277E-01
  4.038990E-01
  4.011745E-01
  4.006488E-01
  3.993193E-01
  4.019049E-01
  4.034863E-01
  4.067766E-01
  4.066525E-01
  4.075461E-01
  4.060267E-01
  4.067424E-01
  4.053827E-01
  4.059357E-01
  4.041610E-01
  4.043604E-01
  4.027571E-01
  4.040283E-01
  4.036231E-01
  4.038973E-01
  4.042903E-01
  4.057705E-01
  4.059234E-01
  4.055439E-01
  4.038215E-01
  4.030143E-01
  4.020813E-01
  4.019814E-01
  4.012201E-01
  4.017051E-01
  4.027053E-01
  4.052009E-01
  4.067153E-01
  4.079404E-01
  4.080367E-01
  4.090842E-01
  4.094285E-01
  4.091710E-01
  4.061452E-01
  4.023778E-01
  3.983572E-01
  3.970956E-01
  3.976967E-01
  4.004282E-01
  4.021663E-01
  4.030876E-01
  4.021527E-01
  4.019573E-01
  4.020969E-01
  4.038023E-01
  4.048928E-01
  4.058671E-01
  4.050861E-01
  4.042837E-01
  4.029317E-01
  4.029873E-01
  4.030300E-01
  4.037626E-01
  4.033844E-01
  4.034351E-01
  4.031079E-01
  4.038719E-01
  4.038796E-01
  4.038242E-01
  4.022291E-01
  4.009985E-01
  3.997039E-01
  4.003327E-01
  4.014464E-01
  4.035245E-01
  4.042974E-01
  4.048744E-01
  4.044427E-01
  4.047760E-01
  4.041869E-01
  4.033509E-01
  4.010172E-01
  3.997017E-01
  3.993085E-01
  4.011969E-01
  4.097936E-01
  4.079898E-01
  4.061408E-01
  4.041298E-01
  4.043489E-01
  4.041922E-01
  4.046528E-01
  4.036647E-01
  4.034622E-01
  4.024747E-01
  4.025435E-01
  4.016983E-01
  4.020092E-01
  4.020676E-01
  4.039538E-01
  4.053684E-01
  4.074072E-01
  4.078428E-01
  4.089149E-01
  4.091091E-01
  4.099443E-01
  4.086797E-01
  4.068057E-01
  4.030443E-01
  4.004883E-01
  3.983280E-01
  3.987702E-01
  3.994476E-01
  4.012515E-01
  4.017259E-01
  4.029936E-01
  4.037158E-01
  4.056064E-01
  4.058832E-01
  4.057359E-01
  4.036773E-01
  4.028003E-01
  4.022244E-01
  4.038114E-01
  4.047461E-01
  4.058361E-01
  4.049888E-01
  4.048922E-01
  4.045526E-01
  4.056637E-01
  4.051976E-01
  4.042202E-01
  4.013475E-01
  3.997509E-01
  3.985284E-01
  3.997482E-01
  4.013715E-01
  4.048589E-01
  4.073766E-01
  4.093479E-01
  4.078967E-01
  4.053057E-01
  4.011920E-01
  3.988856E-01
  3.973023E-01
  3.985919E-01
  4.008718E-01
  4.052506E-01
  4.081688E-01
  4.112476E-01
  4.097720E-01
  4.071557E-01
  4.032988E-01
  4.027843E-01
  4.028004E-01
  4.047858E-01
  4.048835E-01
  4.055481E-01
  4.041969E-01
  4.036281E-01
  4.012585E-01
  4.006471E-01
  4.003559E-01
  4.036078E-01
  4.064179E-01
  4.093052E-01
  4.084521E-01
  4.077493E-01
  4.063590E-01
  4.075391E-01
  4.071830E-01
  4.063816E-01
  4.021932E-01
  3.988928E-01
  3.957688E-01
  3.965246E-01
  3.977055E-01
  4.001446E-01
  3.997703E-01
  3.998126E-01
  3.993573E-01
  4.022991E-01
  4.051531E-01
  4.086074E-01
  4.083397E-01
  4.071918E-01
  4.038261E-01
  4.025046E-01
  4.011529E-01
  4.021978E-01
  4.022838E-01
  4.038565E-01
  4.041842E-01
  4.057101E-01
  4.049208E-01
  4.040443E-01
  4.008516E-01
  3.994378E-01
  3.983434E-01
  4.006843E-01
  4.031205E-01
  4.069869E-01
  4.079426E-01
  4.078429E-01
  4.044352E-01
  4.019935E-01
  3.989813E-01
  3.982047E-01
  3.965847E-01
  3.972061E-01
  3.984532E-01
  4.033944E-01
  4.076785E-01
  4.159538E-01
  4.123511E-01
  4.085135E-01
  4.041261E-01
  4.028505E-01
  4.015012E-01
  4.020720E-01
  4.015809E-01
  4.026535E-01
  4.022517E-01
  4.026464E-01
  4.010949E-01
  4.009501E-01
  4.004134E-01
  4.025490E-01
  4.040014E-01
  4.062591E-01
  4.058894E-01
  4.060467E-01
  4.049556E-01
  4.057330E-01
  4.051718E-01
  4.052367E-01
  4.029965E-01
  4.017977E-01
  3.999449E-01
  4.007276E-01
  4.010450E-01
  4.025546E-01
  4.020555E-01
  4.030337E-01
  4.039017E-01
  4.072300E-01
  4.086145E-01
  4.091275E-01
  4.061257E-01
  4.040865E-01
  4.019456E-01
  4.026581E-01
  4.025459E-01
  4.034279E-01
  4.028052E-01
  4.043560E-01
  4.056336E-01
  4.080095E-01
  4.068048E-01
  4.043277E-01
  3.996713E-01
  3.979951E-01
  3.976911E-01
  4.008193E-01
  4.033857E-01
  4.070063E-01
  4.080716E-01
  4.085571E-01
  4.055969E-01
  4.028350E-01
  3.990279E-01
  3.979979E-01
  3.975498E-01
  4.006317E-01
  4.045063E-01
  4.108060E-01
  4.144582E-01
  4.117297E-01
  4.095337E-01
  4.073475E-01
  4.031113E-01
  4.022937E-01
  4.009724E-01
  4.022961E-01
  4.015558E-01
  4.025723E-01
  4.014171E-01
  4.019233E-01
  3.999841E-01
  4.000661E-01
  3.991974E-01
  4.018338E-01
  4.030492E-01
  4.050393E-01
  4.029512E-01
  4.019131E-01
  3.999794E-01
  4.020610E-01
  4.031499E-01
  4.052717E-01
  4.033756E-01
  4.022920E-01
  3.999179E-01
  4.014418E-01
  4.022548E-01
  4.044983E-01
  4.030704E-01
  4.029462E-01
  4.021772E-01
  4.055844E-01
  4.077666E-01
  4.104567E-01
  4.085370E-01
  4.068016E-01
  4.027910E-01
  4.016001E-01
  3.995754E-01
  4.006334E-01
  4.006974E-01
  4.035652E-01
  4.046293E-01
  4.067576E-01
  4.049287E-01
  4.032664E-01
  3.991514E-01
  3.982638E-01
  3.975265E-01
  4.006004E-01
  4.023934E-01
  4.055187E-01
  4.049906E-01
  4.048371E-01
  4.022243E-01
  4.026405E-01
  4.025306E-01
  4.048640E-01
  4.043649E-01
  4.050890E-01
  4.044234E-01
  4.074058E-01
  4.092100E-01
  4.106331E-01
  4.069235E-01
  4.068780E-01
  4.032673E-01
  4.040116E-01
  4.008207E-01
  4.014317E-01
  3.982783E-01
  3.996266E-01
  3.977678E-01
  4.003858E-01
  3.993486E-01
  4.022554E-01
  4.010526E-01
  4.034339E-01
  4.012831E-01
  4.023453E-01
  3.989795E-01
  3.998180E-01
  3.979062E-01
  4.014310E-01
  4.019671E-01
  4.061664E-01
  4.051804E-01
  4.070590E-01
  4.048749E-01
  4.072935E-01
  4.060910E-01
  4.082863E-01
  4.058263E-01
  4.077197E-01
  4.069577E-01
  4.106692E-01
  4.089007E-01
  4.085530E-01
  4.029049E-01
  4.021891E-01
  3.997100E-01
  4.026424E-01
  4.016777E-01
  4.040390E-01
  4.024466E-01
  4.056491E-01
  4.055192E-01
  4.084265E-01
  4.049955E-01
  4.034873E-01
  3.979999E-01
  3.982932E-01
  3.968974E-01
  4.006928E-01
  4.007697E-01
  4.044998E-01
  4.038792E-01
  4.067675E-01
  4.054156E-01
  4.081615E-01
  4.073382E-01
  4.105114E-01
  4.090961E-01
  4.110159E-01
  4.089270E-01
  4.111751E-01
  4.093608E-01
  4.038295E-01
  4.024548E-01
  4.054707E-01
  4.026589E-01
  4.047785E-01
  4.018775E-01
  4.038929E-01
  4.003158E-01
  4.015626E-01
  3.981382E-01
  4.006940E-01
  3.990339E-01
  4.029590E-01
  4.019417E-01
  4.057219E-01
  4.033100E-01
  4.042977E-01
  3.988710E-01
  3.988884E-01
  3.960583E-01
  4.009832E-01
  4.020811E-01
  4.072355E-01
  4.049877E-01
  4.064306E-01
  4.032477E-01
  4.066818E-01
  4.056501E-01
  4.087007E-01
  4.050204E-01
  4.061226E-01
  4.033562E-01
  4.070053E-01
  4.054004E-01
  4.075835E-01
  4.034846E-01
  4.043187E-01
  4.005126E-01
  4.023000E-01
  3.995666E-01
  4.028082E-01
  4.019688E-01
  4.066721E-01
  4.055944E-01
  4.080898E-01
  4.038808E-01
  4.041030E-01
  3.996416E-01
  4.013042E-01