# vtk DataFile Version 2.0
title
ASCII
DATASET STRUCTURED_GRID
DIMENSIONS   64   64    1
POINTS   4096  float
  0.000000E+00  0.000000E+00  0.000000E+00
  0.000000E+00  3.906250E-01  0.000000E+00
  0.000000E+00  7.812500E-01  0.000000E+00
  0.000000E+00  1.171875E+00  0.000000E+00
  0.000000E+00  1.562500E+00  0.000000E+00
  0.000000E+00  1.953125E+00  0.000000E+00
  0.000000E+00  2.343750E+00  0.000000E+00
  0.000000E+00  2.734375E+00  0.000000E+00
  0.000000E+00  3.125000E+00  0.000000E+00
  0.000000E+00  3.515625E+00  0.000000E+00
  0.000000E+00  3.906250E+00  0.000000E+00
  0.000000E+00  4.296875E+00  0.000000E+00
  0.000000E+00  4.687500E+00  0.000000E+00
  0.000000E+00  5.078125E+00  0.000000E+00
  0.000000E+00  5.468750E+00  0.000000E+00
  0.000000E+00  5.859375E+00  0.000000E+00
  0.000000E+00  6.250000E+00  0.000000E+00
  0.000000E+00  6.640625E+00  0.000000E+00
  0.000000E+00  7.031250E+00  0.000000E+00
  0.000000E+00  7.421875E+00  0.000000E+00
  0.000000E+00  7.812500E+00  0.000000E+00
  0.000000E+00  8.203125E+00  0.000000E+00
  0.000000E+00  8.593750E+00  0.000000E+00
  0.000000E+00  8.984375E+00  0.000000E+00
  0.000000E+00  9.375000E+00  0.000000E+00
  0.000000E+00  9.765625E+00  0.000000E+00
  0.000000E+00  1.015625E+01  0.000000E+00
  0.000000E+00  1.054688E+01  0.000000E+00
  0.000000E+00  1.093750E+01  0.000000E+00
  0.000000E+00  1.132812E+01  0.000000E+00
  0.000000E+00  1.171875E+01  0.000000E+00
  0.000000E+00  1.210938E+01  0.000000E+00
  0.000000E+00  1.250000E+01  0.000000E+00
  0.000000E+00  1.289062E+01  0.000000E+00
  0.000000E+00  1.328125E+01  0.000000E+00
  0.000000E+00  1.367188E+01  0.000000E+00
  0.000000E+00  1.406250E+01  0.000000E+00
  0.000000E+00  1.445312E+01  0.000000E+00
  0.000000E+00  1.484375E+01  0.000000E+00
  0.000000E+00  1.523438E+01  0.000000E+00
  0.000000E+00  1.562500E+01  0.000000E+00
  0.000000E+00  1.601562E+01  0.000000E+00
  0.000000E+00  1.640625E+01  0.000000E+00
  0.000000E+00  1.679688E+01  0.000000E+00
  0.000000E+00  1.718750E+01  0.000000E+00
  0.000000E+00  1.757812E+01  0.000000E+00
  0.000000E+00  1.796875E+01  0.000000E+00
  0.000000E+00  1.835938E+01  0.000000E+00
  0.000000E+00  1.875000E+01  0.000000E+00
  0.000000E+00  1.914062E+01  0.000000E+00
  0.000000E+00  1.953125E+01  0.000000E+00
  0.000000E+00  1.992188E+01  0.000000E+00
  0.000000E+00  2.031250E+01  0.000000E+00
  0.000000E+00  2.070312E+01  0.000000E+00
  0.000000E+00  2.109375E+01  0.000000E+00
  0.000000E+00  2.148438E+01  0.000000E+00
  0.000000E+00  2.187500E+01  0.000000E+00
  0.000000E+00  2.226562E+01  0.000000E+00
  0.000000E+00  2.265625E+01  0.000000E+00
  0.000000E+00  2.304688E+01  0.000000E+00
  0.000000E+00  2.343750E+01  0.000000E+00
  0.000000E+00  2.382812E+01  0.000000E+00
  0.000000E+00  2.421875E+01  0.000000E+00
  0.000000E+00  2.460938E+01  0.000000E+00
  3.906250E-01  0.000000E+00  0.000000E+00
  3.906250E-01  3.906250E-01  0.000000E+00
  3.906250E-01  7.812500E-01  0.000000E+00
  3.906250E-01  1.171875E+00  0.000000E+00
  3.906250E-01  1.562500E+00  0.000000E+00
  3.906250E-01  1.953125E+00  0.000000E+00
  3.906250E-01  2.343750E+00  0.000000E+00
  3.906250E-01  2.734375E+00  0.000000E+00
  3.906250E-01  3.125000E+00  0.000000E+00
  3.906250E-01  3.515625E+00  0.000000E+00
  3.906250E-01  3.906250E+00  0.000000E+00
  3.906250E-01  4.296875E+00  0.000000E+00
  3.906250E-01  4.687500E+00  0.000000E+00
  3.906250E-01  5.078125E+00  0.000000E+00
  3.906250E-01  5.468750E+00  0.000000E+00
  3.906250E-01  5.859375E+00  0.000000E+00
  3.906250E-01  6.250000E+00  0.000000E+00
  3.906250E-01  6.640625E+00  0.000000E+00
  3.906250E-01  7.031250E+00  0.000000E+00
  3.906250E-01  7.421875E+00  0.000000E+00
  3.906250E-01  7.812500E+00  0.000000E+00
  3.906250E-01  8.203125E+00  0.000000E+00
  3.906250E-01  8.593750E+00  0.000000E+00
  3.906250E-01  8.984375E+00  0.000000E+00
  3.906250E-01  9.375000E+00  0.000000E+00
  3.906250E-01  9.765625E+00  0.000000E+00
  3.906250E-01  1.015625E+01  0.000000E+00
  3.906250E-01  1.054688E+01  0.000000E+00
  3.906250E-01  1.093750E+01  0.000000E+00
  3.906250E-01  1.132812E+01  0.000000E+00
  3.906250E-01  1.171875E+01  0.000000E+00
  3.906250E-01  1.210938E+01  0.000000E+00
  3.906250E-01  1.250000E+01  0.000000E+00
  3.906250E-01  1.289062E+01  0.000000E+00
  3.906250E-01  1.328125E+01  0.000000E+00
  3.906250E-01  1.367188E+01  0.000000E+00
  3.906250E-01  1.406250E+01  0.000000E+00
  3.906250E-01  1.445312E+01  0.000000E+00
  3.906250E-01  1.484375E+01  0.000000E+00
  3.906250E-01  1.523438E+01  0.000000E+00
  3.906250E-01  1.562500E+01  0.000000E+00
  3.906250E-01  1.601562E+01  0.000000E+00
  3.906250E-01  1.640625E+01  0.000000E+00
  3.906250E-01  1.679688E+01  0.000000E+00
  3.906250E-01  1.718750E+01  0.000000E+00
  3.906250E-01  1.757812E+01  0.000000E+00
  3.906250E-01  1.796875E+01  0.000000E+00
  3.906250E-01  1.835938E+01  0.000000E+00
  3.906250E-01  1.875000E+01  0.000000E+00
  3.906250E-01  1.914062E+01  0.000000E+00
  3.906250E-01  1.953125E+01  0.000000E+00
  3.906250E-01  1.992188E+01  0.000000E+00
  3.906250E-01  2.031250E+01  0.000000E+00
  3.906250E-01  2.070312E+01  0.000000E+00
  3.906250E-01  2.109375E+01  0.000000E+00
  3.906250E-01  2.148438E+01  0.000000E+00
  3.906250E-01  2.187500E+01  0.000000E+00
  3.906250E-01  2.226562E+01  0.000000E+00
  3.906250E-01  2.265625E+01  0.000000E+00
  3.906250E-01  2.304688E+01  0.000000E+00
  3.906250E-01  2.343750E+01  0.000000E+00
  3.906250E-01  2.382812E+01  0.000000E+00
  3.906250E-01  2.421875E+01  0.000000E+00
  3.906250E-01  2.460938E+01  0.000000E+00
  7.812500E-01  0.000000E+00  0.000000E+00
  7.812500E-01  3.906250E-01  0.000000E+00
  7.812500E-01  7.812500E-01  0.000000E+00
  7.812500E-01  1.171875E+00  0.000000E+00
  7.812500E-01  1.562500E+00  0.000000E+00
  7.812500E-01  1.953125E+00  0.000000E+00
  7.812500E-01  2.343750E+00  0.000000E+00
  7.812500E-01  2.734375E+00  0.000000E+00
  7.812500E-01  3.125000E+00  0.000000E+00
  7.812500E-01  3.515625E+00  0.000000E+00
  7.812500E-01  3.906250E+00  0.000000E+00
  7.812500E-01  4.296875E+00  0.000000E+00
  7.812500E-01  4.687500E+00  0.000000E+00
  7.812500E-01  5.078125E+00  0.000000E+00
  7.812500E-01  5.468750E+00  0.000000E+00
  7.812500E-01  5.859375E+00  0.000000E+00
  7.812500E-01  6.250000E+00  0.000000E+00
  7.812500E-01  6.640625E+00  0.000000E+00
  7.812500E-01  7.031250E+00  0.000000E+00
  7.812500E-01  7.421875E+00  0.000000E+00
  7.812500E-01  7.812500E+00  0.000000E+00
  7.812500E-01  8.203125E+00  0.000000E+00
  7.812500E-01  8.593750E+00  0.000000E+00
  7.812500E-01  8.984375E+00  0.000000E+00
  7.812500E-01  9.375000E+00  0.000000E+00
  7.812500E-01  9.765625E+00  0.000000E+00
  7.812500E-01  1.015625E+01  0.000000E+00
  7.812500E-01  1.054688E+01  0.000000E+00
  7.812500E-01  1.093750E+01  0.000000E+00
  7.812500E-01  1.132812E+01  0.000000E+00
  7.812500E-01  1.171875E+01  0.000000E+00
  7.812500E-01  1.210938E+01  0.000000E+00
  7.812500E-01  1.250000E+01  0.000000E+00
  7.812500E-01  1.289062E+01  0.000000E+00
  7.812500E-01  1.328125E+01  0.000000E+00
  7.812500E-01  1.367188E+01  0.000000E+00
  7.812500E-01  1.406250E+01  0.000000E+00
  7.812500E-01  1.445312E+01  0.000000E+00
  7.812500E-01  1.484375E+01  0.000000E+00
  7.812500E-01  1.523438E+01  0.000000E+00
  7.812500E-01  1.562500E+01  0.000000E+00
  7.812500E-01  1.601562E+01  0.000000E+00
  7.812500E-01  1.640625E+01  0.000000E+00
  7.812500E-01  1.679688E+01  0.000000E+00
  7.812500E-01  1.718750E+01  0.000000E+00
  7.812500E-01  1.757812E+01  0.000000E+00
  7.812500E-01  1.796875E+01  0.000000E+00
  7.812500E-01  1.835938E+01  0.000000E+00
  7.812500E-01  1.875000E+01  0.000000E+00
  7.812500E-01  1.914062E+01  0.000000E+00
  7.812500E-01  1.953125E+01  0.000000E+00
  7.812500E-01  1.992188E+01  0.000000E+00
  7.812500E-01  2.031250E+01  0.000000E+00
  7.812500E-01  2.070312E+01  0.000000E+00
  7.812500E-01  2.109375E+01  0.000000E+00
  7.812500E-01  2.148438E+01  0.000000E+00
  7.812500E-01  2.187500E+01  0.000000E+00
  7.812500E-01  2.226562E+01  0.000000E+00
  7.812500E-01  2.265625E+01  0.000000E+00
  7.812500E-01  2.304688E+01  0.000000E+00
  7.812500E-01  2.343750E+01  0.000000E+00
  7.812500E-01  2.382812E+01  0.000000E+00
  7.812500E-01  2.421875E+01  0.000000E+00
  7.812500E-01  2.460938E+01  0.000000E+00
  1.171875E+00  0.000000E+00  0.000000E+00
  1.171875E+00  3.906250E-01  0.000000E+00
  1.171875E+00  7.812500E-01  0.000000E+00
  1.171875E+00  1.171875E+00  0.000000E+00
  1.171875E+00  1.562500E+00  0.000000E+00
  1.171875E+00  1.953125E+00  0.000000E+00
  1.171875E+00  2.343750E+00  0.000000E+00
  1.171875E+00  2.734375E+00  0.000000E+00
  1.171875E+00  3.125000E+00  0.000000E+00
  1.171875E+00  3.515625E+00  0.000000E+00
  1.171875E+00  3.906250E+00  0.000000E+00
  1.171875E+00  4.296875E+00  0.000000E+00
  1.171875E+00  4.687500E+00  0.000000E+00
  1.171875E+00  5.078125E+00  0.000000E+00
  1.171875E+00  5.468750E+00  0.000000E+00
  1.171875E+00  5.859375E+00  0.000000E+00
  1.171875E+00  6.250000E+00  0.000000E+00
  1.171875E+00  6.640625E+00  0.000000E+00
  1.171875E+00  7.031250E+00  0.000000E+00
  1.171875E+00  7.421875E+00  0.000000E+00
  1.171875E+00  7.812500E+00  0.000000E+00
  1.171875E+00  8.203125E+00  0.000000E+00
  1.171875E+00  8.593750E+00  0.000000E+00
  1.171875E+00  8.984375E+00  0.000000E+00
  1.171875E+00  9.375000E+00  0.000000E+00
  1.171875E+00  9.765625E+00  0.000000E+00
  1.171875E+00  1.015625E+01  0.000000E+00
  1.171875E+00  1.054688E+01  0.000000E+00
  1.171875E+00  1.093750E+01  0.000000E+00
  1.171875E+00  1.132812E+01  0.000000E+00
  1.171875E+00  1.171875E+01  0.000000E+00
  1.171875E+00  1.210938E+01  0.000000E+00
  1.171875E+00  1.250000E+01  0.000000E+00
  1.171875E+00  1.289062E+01  0.000000E+00
  1.171875E+00  1.328125E+01  0.000000E+00
  1.171875E+00  1.367188E+01  0.000000E+00
  1.171875E+00  1.406250E+01  0.000000E+00
  1.171875E+00  1.445312E+01  0.000000E+00
[...]
POINT_DATA   4096
SCALARS CON  float  1
LOOKUP_TABLE default
  4.144451E-01
  4.135425E-01
  4.186550E-01
  4.167013E-01
  4.173289E-01
  4.115170E-01
  4.128716E-01
  4.116837E-01
  4.167684E-01
  4.148458E-01
  4.159952E-01
  4.109834E-01
  4.121839E-01
  4.092752E-01
  4.124687E-01
  4.109378E-01
  4.154215E-01
  4.146139E-01
  4.179404E-01
  4.138966E-01
  4.139560E-01
  4.088535E-01
  4.100501E-01
  4.065663E-01
  4.083667E-01
  4.048361E-01
  4.075733E-01
  4.070254E-01
  4.134835E-01
  4.140759E-01
  4.171206E-01
  4.118891E-01
  4.119021E-01
  4.091554E-01
  4.141346E-01
  4.134862E-01
  4.156839E-01
  4.103715E-01
  4.103585E-01
  4.064586E-01
  4.090736E-01
  4.064924E-01
  4.087882E-01
  4.055398E-01
  4.078168E-01
  4.054596E-01
  4.097949E-01
  4.107366E-01
  4.180073E-01
  4.181392E-01
  4.194994E-01
  4.119232E-01
  4.096186E-01
  4.053193E-01
  4.107641E-01
  4.139929E-01
  4.226228E-01
  4.227251E-01
  4.241148E-01
  4.177660E-01
  4.172294E-01
  4.129310E-01
  4.148568E-01
  4.115840E-01
  4.147622E-01
  4.152180E-01
  4.217004E-01
  4.217141E-01
  4.214050E-01
  4.134718E-01
  4.111783E-01
  4.084614E-01
  4.128960E-01
  4.127116E-01
  4.152881E-01
  4.127021E-01
  4.147580E-01
  4.122191E-01
  4.132092E-01
  4.098076E-01
  4.125886E-01
  4.131258E-01
  4.181384E-01
  4.161995E-01
  4.157046E-01
  4.098449E-01
  4.097951E-01
  4.075035E-01
  4.106119E-01
  4.089400E-01
  4.109856E-01
  4.090126E-01
  4.126874E-01
  4.126948E-01
  4.161494E-01
  4.132533E-01
  4.136846E-01
  4.102565E-01
  4.122549E-01
  4.100440E-01
  4.116250E-01
  4.086165E-01
  4.106531E-01
  4.088062E-01
  4.106228E-01
  4.066592E-01
  4.065211E-01
  4.029030E-01
  4.050048E-01
  4.038194E-01
  4.082420E-01
  4.102884E-01
  4.180358E-01
  4.195600E-01
  4.206894E-01
  4.132541E-01
  4.105161E-01
  4.078585E-01
  4.146595E-01
  4.192827E-01
  4.263305E-01
  4.242108E-01
  4.225075E-01
  4.155277E-01
  4.150399E-01
  4.125023E-01
  4.148978E-01
  4.123199E-01
  4.082775E-01
  4.140243E-01
  4.215677E-01
  4.234342E-01
  4.212673E-01
  4.143372E-01
  4.106100E-01
  4.090386E-01
  4.118729E-01
  4.132640E-01
  4.152083E-01
  4.145653E-01
  4.152658E-01
  4.138836E-01
  4.137202E-01
  4.120874E-01
  4.133218E-01
  4.140904E-01
  4.165239E-01
  4.158096E-01
  4.150775E-01
  4.119385E-01
  4.109534E-01
  4.092287E-01
  4.098005E-01
  4.087329E-01
  4.091755E-01
  4.081303E-01
  4.093153E-01
  4.090181E-01
  4.097472E-01
  4.079763E-01
  4.082387E-01
  4.085166E-01
  4.119067E-01
  4.130777E-01
  4.137117E-01
  4.108284E-01
  4.096363E-01
  4.078278E-01
  4.080448E-01
  4.057233E-01
  4.042300E-01
  4.015267E-01
  4.021969E-01
  4.032457E-01
  4.077626E-01
  4.119806E-01
  4.180013E-01
  4.200139E-01
  4.195192E-01
  4.140688E-01
  4.105880E-01
  4.089498E-01
  4.132510E-01
  4.182842E-01
  4.241331E-01
  4.244265E-01
  4.218079E-01
  4.147212E-01
  4.094704E-01
  4.045424E-01
  4.036710E-01
  4.036228E-01
  4.080856E-01
  4.150532E-01
  4.205496E-01
  4.241008E-01
  4.194471E-01
  4.130473E-01
  4.060943E-01
  4.055047E-01
  4.067902E-01
  4.112459E-01
  4.132651E-01
  4.163752E-01
  4.165108E-01
  4.169199E-01
  4.136902E-01
  4.122735E-01
  4.108748E-01
  4.138376E-01
  4.155497E-01
  4.175973E-01
  4.153996E-01
  4.141185E-01
  4.116002E-01
  4.124125E-01
  4.120572E-01
  4.131843E-01
  4.111400E-01
  4.101482E-01
  4.076643E-01
  4.086868E-01
  4.092199E-01
  4.117664E-01
  4.112480E-01
  4.114931E-01
  4.094081E-01
  4.095008E-01
  4.082298E-01
  4.097603E-01
  4.102205E-01
  4.123988E-01
  4.107956E-01
  4.089918E-01
  4.050358E-01
  4.051114E-01
  4.057477E-01
  4.091469E-01
  4.101143E-01
  4.129099E-01
  4.142789E-01
  4.169693E-01
  4.151578E-01
  4.128750E-01
  4.091687E-01
  4.108718E-01
  4.143557E-01
  4.207961E-01
  4.228125E-01
  4.224866E-01
  4.167574E-01
  4.121068E-01
  4.069284E-01
  4.057145E-01
  4.041046E-01
  4.058458E-01
  4.051692E-01
  4.143319E-01
  4.173538E-01
  4.210612E-01
  4.144425E-01
  4.108951E-01
  4.039970E-01
  4.056953E-01
  4.051532E-01
  4.109337E-01
  4.114845E-01
  4.162049E-01
  4.142435E-01
  4.159293E-01
  4.117709E-01
  4.133315E-01
  4.110766E-01
  4.149380E-01
  4.136474E-01
  4.167814E-01
  4.139487E-01
  4.156897E-01
  4.117502E-01
  4.125731E-01
  4.083758E-01
  4.098561E-01
  4.066330E-01
  4.085127E-01
  4.053581E-01
  4.080063E-01
  4.064779E-01
  4.103119E-01
  4.084580E-01
  4.112607E-01
  4.090655E-01
  4.121893E-01
  4.098548E-01
  4.121929E-01
  4.094009E-01
  4.117917E-01
  4.083581E-01
  4.090889E-01
  4.050005E-01
  4.081133E-01
  4.084475E-01
  4.142572E-01
  4.130853E-01
  4.151271E-01
  4.115156E-01
  4.133575E-01
  4.098719E-01
  4.109304E-01
  4.070855E-01
  4.098598E-01
  4.094634E-01
  4.152956E-01
  4.155107E-01
  4.189921E-01
  4.147473E-01
  4.135694E-01
  4.063864E-01
  4.048669E-01
  4.001070E-01
  4.034181E-01
  4.095869E-01
  4.155011E-01
  4.154506E-01
  4.187539E-01
  4.120264E-01
  4.093001E-01
  4.017249E-01
  4.032739E-01
  4.018833E-01
  4.082011E-01
  4.088862E-01
  4.148517E-01
  4.129925E-01
  4.150753E-01
  4.099020E-01
  4.115212E-01
  4.093554E-01
  4.151750E-01
  4.150282E-01
  4.192832E-01
  4.153814E-01
  4.162902E-01
  4.107659E-01
  4.115566E-01
  4.070780E-01
  4.095682E-01
  4.065374E-01
  4.093648E-01
  4.063187E-01
  4.106608E-01
  4.107643E-01
  4.169236E-01
  4.144168E-01
  4.148151E-01
  4.081046E-01
  4.090010E-01
  4.064628E-01
  4.118023E-01
  4.114102E-01
  4.156230E-01
  4.112261E-01
  4.112875E-01
  4.067007E-01
  4.119041E-01
  4.138700E-01
  4.206505E-01
  4.169316E-01
  4.159152E-01
  4.089428E-01
  4.101404E-01
  4.066927E-01
  4.092523E-01
  4.058826E-01
  4.096732E-01
  4.087489E-01
  4.138861E-01
  4.116527E-01
  4.140808E-01
  4.100782E-01
  4.126691E-01
  4.097363E-01
  4.126657E-01
  4.090139E-01
  4.115592E-01
  4.084456E-01
  4.131851E-01
  4.127359E-01
  4.151677E-01
  4.105368E-01
  4.100391E-01
  4.054129E-01
  4.069877E-01
  4.051036E-01
  4.092433E-01
  4.090682E-01
  4.131215E-01
  4.107208E-01
  4.120347E-01
  4.088240E-01
  4.121560E-01
  4.122549E-01
  4.175953E-01
  4.169605E-01
  4.196306E-01
  4.160206E-01
  4.162341E-01
  4.103779E-01
  4.086544E-01
  4.028007E-01
  4.040621E-01
  4.028732E-01
  4.075007E-01
  4.070729E-01
  4.114686E-01
  4.114174E-01
  4.158934E-01
  4.136880E-01
  4.146900E-01
  4.108947E-01
  4.134722E-01
  4.122162E-01
  4.155199E-01
  4.128492E-01
  4.140159E-01
  4.094965E-01
  4.098358E-01
  4.069160E-01
  4.118507E-01
  4.141793E-01
  4.204787E-01
  4.179266E-01
  4.166782E-01
  4.099235E-01
  4.099453E-01
  4.070460E-01
  4.094958E-01
  4.066371E-01
  4.084195E-01
  4.057239E-01
  4.084749E-01
  4.068786E-01
  4.105987E-01
  4.097352E-01
  4.135046E-01
  4.113835E-01
  4.127963E-01
  4.086177E-01
  4.100449E-01
  4.106796E-01
  4.115836E-01
  4.113609E-01
  4.139773E-01
  4.125736E-01
  4.124134E-01
  4.090663E-01
  4.090518E-01
  4.075791E-01
  4.100224E-01
  4.104518E-01
  4.132592E-01
  4.120900E-01
  4.123421E-01
  4.098127E-01
  4.115649E-01
  4.129553E-01
  4.183599E-01
  4.200805E-01
  4.218063E-01
  4.180328E-01
  4.155062E-01
  4.100892E-01
  4.080875E-01
  4.049011E-01
  4.064065E-01
  4.067720E-01
  4.100655E-01
  4.103136E-01
  4.137811E-01
  4.157782E-01
  4.203151E-01
  4.193590E-01
  4.178110E-01
  4.127229E-01
  4.124672E-01
  4.122364E-01
  4.157894E-01
  4.157268E-01
  4.164596E-01
  4.126747E-01
  4.111731E-01
  4.087855E-01
  4.122717E-01
  4.149743E-01
  4.189531E-01
  4.165004E-01
  4.142977E-01
  4.100316E-01
  4.106866E-01
  4.097877E-01
  4.110469E-01
  4.090025E-01
  4.102361E-01
  4.097503E-01
  4.117826E-01
  4.097526E-01
  4.095608E-01
  4.076491E-01
  4.105967E-01
  4.122440E-01
  4.158974E-01
  4.145673E-01
  4.140202E-01
  4.059422E-01
  4.074527E-01
  4.089554E-01
  4.119559E-01
  4.132869E-01
  4.151076E-01
  4.148324E-01
  4.150059E-01
  4.137163E-01
  4.141350E-01
  4.138376E-01
  4.144344E-01
  4.127915E-01
  4.119390E-01
  4.108667E-01
  4.129547E-01
  4.152964E-01
  4.188424E-01
  4.196210E-01
  4.195477E-01
  4.166341E-01
  4.141892E-01
  4.102573E-01
  4.077869E-01
  4.053447E-01
  4.063482E-01
  4.080657E-01
  4.112275E-01
  4.119730E-01
  4.130755E-01
  4.132460E-01
  4.150660E-01
  4.151331E-01
  4.157117E-01
  4.154193E-01
  4.173813E-01
  4.180384E-01
  4.181607E-01
  4.150123E-01
  4.124435E-01
  4.094810E-01
  4.091272E-01
  4.088153E-01
  4.106663E-01
  4.115983E-01
  4.130795E-01
  4.121167E-01
  4.118647E-01
  4.111358E-01
  4.127087E-01
  4.130600E-01
  4.134697E-01
  4.116621E-01
  4.113864E-01
  4.110041E-01
  4.123858E-01
  4.119130E-01
  4.117263E-01
  4.101662E-01
  4.104763E-01
  4.100021E-01
  4.102564E-01
  4.082999E-01
  4.072599E-01
  4.067427E-01
  4.065380E-01
  4.082514E-01
  4.119322E-01
  4.144991E-01
  4.160279E-01
  4.154748E-01
  4.149594E-01
  4.141523E-01
  4.146834E-01
  4.151281E-01
  4.159047E-01
  4.149931E-01
  4.135661E-01
  4.114363E-01
  4.112808E-01
  4.127123E-01
  4.162045E-01
  4.184836E-01
  4.188575E-01
  4.159512E-01
  4.125937E-01
  4.094996E-01
  4.088972E-01
  4.096773E-01
  4.124516E-01
  4.147235E-01
  4.161159E-01
  4.149870E-01
  4.140095E-01
  4.137713E-01
  4.153998E-01
  4.159112E-01
  4.154728E-01
  4.139234E-01
  4.140470E-01
  4.146048E-01
  4.153174E-01
  4.139389E-01
  4.121338E-01
  4.099348E-01
  4.094995E-01
  4.098209E-01
  4.113854E-01
  4.117026E-01
  4.111657E-01
  4.092991E-01
  4.091767E-01
  4.107099E-01
  4.139810E-01
  4.153384E-01
  4.148667E-01
  4.129475E-01
  4.133454E-01
  4.154196E-01
  4.181262E-01
  4.175172E-01
  4.145614E-01
  4.105498E-01
  4.093033E-01
  4.099245E-01
  4.116592E-01
  4.111759E-01
  4.093745E-01
  4.036495E-01
  4.052109E-01
  4.072074E-01
  4.107504E-01
  4.130573E-01
  4.155422E-01
  4.158611E-01
  4.160973E-01
  4.149700E-01
  4.153238E-01
  4.152061E-01
  4.156646E-01
  4.138894E-01
  4.123072E-01
  4.103115E-01
  4.109375E-01
  4.121360E-01
  4.148899E-01
  4.159230E-01
  4.163114E-01
  4.140073E-01
  4.118221E-01
  4.088925E-01
  4.081924E-01
  4.084525E-01
  4.116637E-01
  4.145909E-01
  4.170340E-01
  4.155994E-01
  4.131008E-01
  4.097401E-01
  4.090049E-01
  4.089244E-01
  4.109338E-01
  4.127338E-01
  4.156570E-01
  4.161857E-01
  4.149694E-01
  4.105134E-01
  4.071441E-01
  4.051282E-01
  4.068082E-01
  4.086791E-01
  4.107076E-01
  4.100180E-01
  4.093502E-01
  4.083529E-01
  4.101639E-01
  4.125255E-01
  4.157407E-01
  4.159614E-01
  4.148251E-01
  4.119597E-01
  4.115793E-01
  4.125652E-01
  4.156823E-01
  4.168113E-01
  4.168580E-01
  4.144592E-01
  4.128595E-01
  4.105449E-01
  4.091208E-01
  4.063660E-01
  4.048599E-01
  4.069631E-01
  4.073463E-01
  4.080754E-01
  4.116691E-01
  4.129564E-01
  4.144489E-01
  4.126919E-01
  4.122387E-01
  4.106258E-01
  4.119820E-01
  4.124294E-01
  4.144237E-01
  4.132560E-01
  4.123091E-01
  4.091128E-01
  4.089167E-01
  4.092993E-01
  4.134329E-01
  4.158669E-01
  4.179405E-01
  4.151945E-01
  4.124294E-01
  4.083743E-01
  4.083599E-01
  4.092781E-01
  4.137850E-01
  4.164721E-01
  4.188859E-01
  4.166859E-01
  4.147762E-01
  4.117157E-01
  4.119206E-01
  4.109504E-01
  4.113399E-01
  4.097695E-01
  4.106636E-01
  4.104458E-01
  4.115845E-01
  4.097103E-01
  4.088739E-01
  4.068521E-01
  4.081538E-01
  4.090705E-01
  4.119043E-01
  4.117518E-01
  4.119755E-01
  4.102898E-01
  4.117966E-01
  4.130347E-01
  4.157910E-01
  4.144820E-01
  4.126861E-01
  4.091575E-01
  4.099504E-01
  4.118345E-01
  4.162173E-01
  4.169897E-01
  4.171236E-01
  4.145458E-01
  4.145263E-01
  4.136494E-01
  4.142978E-01
  4.118504E-01
  4.101205E-01
  4.052824E-01
  4.077559E-01
  4.081830E-01
  4.113198E-01
  4.116999E-01
  4.140817E-01
  4.126664E-01
  4.127398E-01
  4.100625E-01
  4.109907E-01
  4.103624E-01
  4.122233E-01
  4.103066E-01
  4.101856E-01
  4.080114E-01
  4.099419E-01
  4.105928E-01
  4.143336E-01
  4.150854E-01
  4.173512E-01
  4.152887E-01
  4.141199E-01
  4.094275E-01
  4.079207E-01
  4.058382E-01
  4.089013E-01
  4.109790E-01
  4.151922E-01
  4.144791E-01
  4.139895E-01
  4.100180E-01
  4.094620E-01
  4.077390E-01
  4.098104E-01
  4.099962E-01
  4.128588E-01
  4.121793E-01
  4.123998E-01
  4.086535E-01
  4.076674E-01
  4.056689E-01
  4.080127E-01
  4.084375E-01
  4.109605E-01
  4.100960E-01
  4.117112E-01
  4.112863E-01
  4.139865E-01
  4.137106E-01
  4.146849E-01
  4.113984E-01
  4.099313E-01
  4.064987E-01
  4.073599E-01
  4.074588E-01
  4.113330E-01
  4.128535E-01
  4.164798E-01
  4.163722E-01
  4.172959E-01
  4.138331E-01
  4.118112E-01
  4.072766E-01
  4.066917E-01
  4.094305E-01
  4.102848E-01
  4.097525E-01
  4.121696E-01
  4.123425E-01
  4.136789E-01
  4.113739E-01
  4.105038E-01
  4.078431E-01
  4.086373E-01
  4.083767E-01
  4.105311E-01
  4.097399E-01
  4.102862E-01
  4.085225E-01
  4.098097E-01
  4.101989E-01
  4.138464E-01
  4.154857E-01
  4.183444E-01
  4.169453E-01
  4.156532E-01
  4.111091E-01
  4.093357E-01
  4.070713E-01
  4.089191E-01
  4.097929E-01
  4.128711E-01
  4.127497E-01
  4.138712E-01
  4.126008E-01
  4.138010E-01
  4.125182E-01
  4.124930E-01
  4.095930E-01
  4.093531E-01
  4.081453E-01
  4.101474E-01
  4.101485E-01
  4.119023E-01
  4.107908E-01
  4.114852E-01
  4.101231E-01
  4.115136E-01
  4.110935E-01
  4.127594E-01
  4.117826E-01
  4.126714E-01
  4.110383E-01
  4.110192E-01
  4.081063E-01
  4.074798E-01
  4.060261E-01
  4.087122E-01
  4.103046E-01
  4.136486E-01
  4.134442E-01
  4.144682E-01
  4.130912E-01
  4.140387E-01
  4.126189E-01
  4.130566E-01
  4.110513E-01
  4.112503E-01
  4.096903E-01
  4.110293E-01
  4.105600E-01
  4.108007E-01
  4.112691E-01
  4.128997E-01
  4.130941E-01
  4.126015E-01
  4.106994E-01
  4.098519E-01
  4.090236E-01
  4.090381E-01
  4.082383E-01
  4.086343E-01
  4.096350E-01
  4.122298E-01
  4.137198E-01
  4.147443E-01
  4.146347E-01
  4.157236E-01
  4.163077E-01
  4.162942E-01
  4.133450E-01
  4.095337E-01
  4.053981E-01
  4.040291E-01
  4.045664E-01
  4.073517E-01
  4.091945E-01
  4.102008E-01
  4.092778E-01
  4.090921E-01
  4.092211E-01
  4.108804E-01
  4.118717E-01
  4.127858E-01
  4.119849E-01
  4.112045E-01
  4.099027E-01
  4.100992E-01
  4.102906E-01
  4.110457E-01
  4.104592E-01
  4.102354E-01
  4.097725E-01
  4.106404E-01
  4.108273E-01
  4.108664E-01
  4.091980E-01
  4.078271E-01
  4.064217E-01
  4.070892E-01
  4.083673E-01
  4.106365E-01
  4.114495E-01
  4.119335E-01
  4.114141E-01
  4.118251E-01
  4.113846E-01
  4.105933E-01
  4.080785E-01
  4.065110E-01
  4.059887E-01
  4.079721E-01
  4.168693E-01
  4.148570E-01
  4.129472E-01
  4.108840E-01
  4.113395E-01
  4.112321E-01
  4.117930E-01
  4.106871E-01
  4.105284E-01
  4.094417E-01
  4.095732E-01
  4.086295E-01
  4.090051E-01
  4.090140E-01
  4.110756E-01
  4.124928E-01
  4.145291E-01
  4.146326E-01
  4.155779E-01
  4.157354E-01
  4.168821E-01
  4.157438E-01
  4.140241E-01
  4.101728E-01
  4.076393E-01
  4.053026E-01
  4.057469E-01
  4.063646E-01
  4.083115E-01
  4.086921E-01
  4.099438E-01
  4.105358E-01
  4.125493E-01
  4.128045E-01
  4.127345E-01
  4.105523E-01
  4.097066E-01
  4.090323E-01
  4.107636E-01
  4.117829E-01
  4.130811E-01
  4.120860E-01
  4.118460E-01
  4.112811E-01
  4.125251E-01
  4.121026E-01
  4.112157E-01
  4.081775E-01
  4.066156E-01
  4.053532E-01
  4.066903E-01
  4.082501E-01
  4.119021E-01
  4.145293E-01
  4.167315E-01
  4.151692E-01
  4.125047E-01
  4.082098E-01
  4.059648E-01
  4.042458E-01
  4.054635E-01
  4.075565E-01
  4.120883E-01
  4.151054E-01
  4.186068E-01
  4.168564E-01
  4.140140E-01
  4.099656E-01
  4.096165E-01
  4.097418E-01
  4.118969E-01
  4.119259E-01
  4.126390E-01
  4.112548E-01
  4.108010E-01
  4.083125E-01
  4.076168E-01
  4.071817E-01
  4.106598E-01
  4.136837E-01
  4.167309E-01
  4.155858E-01
  4.146609E-01
  4.131502E-01
  4.145720E-01
  4.142996E-01
  4.135534E-01
  4.091930E-01
  4.058697E-01
  4.026325E-01
  4.034852E-01
  4.047246E-01
  4.073456E-01
  4.068303E-01
  4.066886E-01
  4.059690E-01
  4.090181E-01
  4.120133E-01
  4.157106E-01
  4.154004E-01
  4.142240E-01
  4.106702E-01
  4.093746E-01
  4.080281E-01
  4.092421E-01
  4.092650E-01
  4.108193E-01
  4.110518E-01
  4.127601E-01
  4.120376E-01
  4.112181E-01
  4.078259E-01
  4.063969E-01
  4.052774E-01
  4.077743E-01
  4.102052E-01
  4.142034E-01
  4.151666E-01
  4.151323E-01
  4.115238E-01
  4.089952E-01
  4.058645E-01
  4.051669E-01
  4.034215E-01
  4.039870E-01
  4.051537E-01
  4.103735E-01
  4.148810E-01
  4.232830E-01
  4.194650E-01
  4.153376E-01
  4.109879E-01
  4.097672E-01
  4.085126E-01
  4.089973E-01
  4.085736E-01
  4.097138E-01
  4.094913E-01
  4.098442E-01
  4.082064E-01
  4.078101E-01
  4.072126E-01
  4.093806E-01
  4.111204E-01
  4.135192E-01
  4.132112E-01
  4.132064E-01
  4.120795E-01
  4.127631E-01
  4.121920E-01
  4.121193E-01
  4.098788E-01
  4.086133E-01
  4.068175E-01
  4.076202E-01
  4.081505E-01
  4.097141E-01
  4.091420E-01
  4.097968E-01
  4.105955E-01
  4.140383E-01
  4.157450E-01
  4.163201E-01
  4.132879E-01
  4.110592E-01
  4.089087E-01
  4.096055E-01
  4.095982E-01
  4.103798E-01
  4.096559E-01
  4.110866E-01
  4.126137E-01
  4.152808E-01
  4.142721E-01
  4.115431E-01
  4.066587E-01
  4.049004E-01
  4.048547E-01
  4.080864E-01
  4.106361E-01
  4.140460E-01
  4.151007E-01
  4.155358E-01
  4.125585E-01
  4.096181E-01
  4.058107E-01
  4.047674E-01
  4.043858E-01
  4.073868E-01
  4.113876E-01
  4.178924E-01
  4.218527E-01
  4.189234E-01
  4.167345E-01
  4.142411E-01
  4.100694E-01
  4.091708E-01
  4.080377E-01
  4.092204E-01
  4.085644E-01
  4.094690E-01
  4.085678E-01
  4.090674E-01
  4.072078E-01
  4.069013E-01
  4.058935E-01
  4.083692E-01
  4.099495E-01
  4.120722E-01
  4.101807E-01
  4.088957E-01
  4.069693E-01
  4.088979E-01
  4.101602E-01
  4.121833E-01
  4.103980E-01
  4.091077E-01
  4.067919E-01
  4.082326E-01
  4.093694E-01
  4.116432E-01
  4.102677E-01
  4.097681E-01
  4.090217E-01
  4.124672E-01
  4.150244E-01
  4.176317E-01
  4.156956E-01
  4.136878E-01
  4.098032E-01
  4.085613E-01
  4.067097E-01
  4.075827E-01
  4.076687E-01
  4.103689E-01
  4.116839E-01
  4.138761E-01
  4.122502E-01
  4.103262E-01
  4.061615E-01
  4.051084E-01
  4.046072E-01
  4.076434E-01
  4.095505E-01
  4.124750E-01
  4.120100E-01
  4.116232E-01
  4.090020E-01
  4.092313E-01
  4.093737E-01
  4.117731E-01
  4.114803E-01
  4.119924E-01
  4.113943E-01
  4.143473E-01
  4.164703E-01
  4.175398E-01
  4.138206E-01
  4.137120E-01
  4.102644E-01
  4.110579E-01
  4.079260E-01
  4.083919E-01
  4.052238E-01
  4.065140E-01
  4.047660E-01
  4.073839E-01
  4.064244E-01
  4.092216E-01
  4.079627E-01
  4.101821E-01
  4.080752E-01
  4.091408E-01
  4.058847E-01
  4.066438E-01
  4.047318E-01
  4.081952E-01
  4.089014E-01
  4.132181E-01
  4.123906E-01
  4.141384E-01
  4.118544E-01
  4.141691E-01
  4.131528E-01
  4.153928E-01
  4.128899E-01
  4.145426E-01
  4.138513E-01
  4.177189E-01
  4.161410E-01
  4.155964E-01
  4.097696E-01
  4.089293E-01
  4.066644E-01
  4.097426E-01
  4.089027E-01
  4.110827E-01
  4.093393E-01
  4.123762E-01
  4.123988E-01
  4.154110E-01
  4.120545E-01
  4.103273E-01
  4.047700E-01
  4.050639E-01
  4.038794E-01
  4.076708E-01
  4.077237E-01
  4.113149E-01
  4.107636E-01
  4.136194E-01
  4.122950E-01
  4.149677E-01
  4.143242E-01
  4.176404E-01
  4.163789E-01
  4.181477E-01
  4.159679E-01
  4.180965E-01
  4.163542E-01
  4.106772E-01
  4.092743E-01
  4.123968E-01
  4.095297E-01
  4.117941E-01
  4.089107E-01
  4.110483E-01
  4.072971E-01
  4.084506E-01
  4.048605E-01
  4.075877E-01
  4.060303E-01
  4.101571E-01
  4.090721E-01
  4.128986E-01
  4.103645E-01
  4.113468E-01
  4.056824E-01
  4.056127E-01
  4.026574E-01
  4.078138E-01
  4.091209E-01
  4.145928E-01
  4.122796E-01
  4.136112E-01
  4.101479E-01
  4.136503E-01
  4.126993E-01
  4.159334E-01
  4.120637E-01
  4.130616E-01
  4.101947E-01
  4.140549E-01
  4.124117E-01
  4.145203E-01
  4.101821E-01
  4.111314E-01
  4.074219E-01
  4.094050E-01
  4.065694E-01
  4.098204E-01
  4.088612E-01
  4.136186E-01
  4.124082E-01
  4.149102E-01
  4.105806E-01
  4.109147E-01
  4.064677E-01
  4.082869E-01