# vtk DataFile Version 2.0
title
ASCII
DATASET STRUCTURED_GRID
DIMENSIONS   64   64    1
POINTS   4096  float
  0.000000E+00  0.000000E+00  0.000000E+00
  0.000000E+00  3.906250E-01  0.000000E+00
  0.000000E+00  7.812500E-01  0.000000E+00
  0.000000E+00  1.171875E+00  0.000000E+00
  0.000000E+00  1.562500E+00  0.000000E+00
  0.000000E+00  1.953125E+00  0.000000E+00
  0.000000E+00  2.343750E+00  0.000000E+00
  0.000000E+00  2.734375E+00  0.000000E+00
  0.000000E+00  3.125000E+00  0.000000E+00
  0.000000E+00  3.515625E+00  0.000000E+00
  0.000000E+00  3.906250E+00  0.000000E+00
  0.000000E+00  4.296875E+00  0.000000E+00
  0.000000E+00  4.687500E+00  0.000000E+00
  0.000000E+00  5.078125E+00  0.000000E+00
  0.000000E+00  5.468750E+00  0.000000E+00
  0.000000E+00  5.859375E+00  0.000000E+00
  0.000000E+00  6.250000E+00  0.000000E+00
  0.000000E+00  6.640625E+00  0.000000E+00
  0.000000E+00  7.031250E+00  0.000000E+00
  0.000000E+00  7.421875E+00  0.000000E+00
  0.000000E+00  7.812500E+00  0.000000E+00
  0.000000E+00  8.203125E+00  0.000000E+00
  0.000000E+00  8.593750E+00  0.000000E+00
  0.000000E+00  8.984375E+00  0.000000E+00
  0.000000E+00  9.375000E+00  0.000000E+00
  0.000000E+00  9.765625E+00  0.000000E+00
  0.000000E+00  1.015625E+01  0.000000E+00
  0.000000E+00  1.054688E+01  0.000000E+00
  0.000000E+00  1.093750E+01  0.000000E+00
  0.000000E+00  1.132812E+01  0.000000E+00
  0.000000E+00  1.171875E+01  0.000000E+00
  0.000000E+00  1.210938E+01  0.000000E+00
  0.000000E+00  1.250000E+01  0.000000E+00
  0.000000E+00  1.289062E+01  0.000000E+00
  0.000000E+00  1.328125E+01  0.000000E+00
  0.000000E+00  1.367188E+01  0.000000E+00
  0.000000E+00  1.406250E+01  0.000000E+00
  0.000000E+00  1.445312E+01  0.000000E+00
  0.000000E+00  1.484375E+01  0.000000E+00
  0.000000E+00  1.523438E+01  0.000000E+00
  0.000000E+00  1.562500E+01  0.000000E+00
  0.000000E+00  1.601562E+01  0.000000E+00
  0.000000E+00  1.640625E+01  0.000000E+00
  0.000000E+00  1.679688E+01  0.000000E+00
  0.000000E+00  1.718750E+01  0.000000E+00
  0.000000E+00  1.757812E+01  0.000000E+00
  0.000000E+00  1.796875E+01  0.000000E+00
  0.000000E+00  1.835938E+01  0.000000E+00
  0.000000E+00  1.875000E+01  0.000000E+00
  0.000000E+00  1.914062E+01  0.000000E+00
  0.000000E+00  1.953125E+01  0.000000E+00
  0.000000E+00  1.992188E+01  0.000000E+00
  0.000000E+00  2.031250E+01  0.000000E+00
  0.000000E+00  2.070312E+01  0.000000E+00
  0.000000E+00  2.109375E+01  0.000000E+00
  0.000000E+00  2.148438E+01  0.000000E+00
  0.000000E+00  2.187500E+01  0.000000E+00
  0.000000E+00  2.226562E+01  0.000000E+00
  0.000000E+00  2.265625E+01  0.000000E+00
  0.000000E+00  2.304688E+01  0.000000E+00
  0.000000E+00  2.343750E+01  0.000000E+00
  0.000000E+00  2.382812E+01  0.000000E+00
  0.000000E+00  2.421875E+01  0.000000E+00
  0.000000E+00  2.460938E+01  0.000000E+00
  3.906250E-01  0.000000E+00  0.000000E+00
  3.906250E-01  3.906250E-01  0.000000E+00
  3.906250E-01  7.812500E-01  0.000000E+00
  3.906250E-01  1.171875E+00  0.000000E+00
  3.906250E-01  1.562500E+00  0.000000E+00
  3.906250E-01  1.953125E+00  0.000000E+00
  3.906250E-01  2.343750E+00  0.000000E+00
  3.906250E-01  2.734375E+00  0.000000E+00
  3.906250E-01  3.125000E+00  0.000000E+00
  3.906250E-01  3.515625E+00  0.000000E+00
  3.906250E-01  3.906250E+00  0.000000E+00
  3.906250E-01  4.296875E+00  0.000000E+00
  3.906250E-01  4.687500E+00  0.000000E+00
  3.906250E-01  5.078125E+00  0.000000E+00
  3.906250E-01  5.468750E+00  0.000000E+00
  3.906250E-01  5.859375E+00  0.000000E+00
  3.906250E-01  6.250000E+00  0.000000E+00
  3.906250E-01  6.640625E+00  0.000000E+00
  3.906250E-01  7.031250E+00  0.000000E+00
  3.906250E-01  7.421875E+00  0.000000E+00
  3.906250E-01  7.812500E+00  0.000000E+00
  3.906250E-01  8.203125E+00  0.000000E+00
  3.906250E-01  8.593750E+00  0.000000E+00
  3.906250E-01  8.984375E+00  0.000000E+00
  3.906250E-01  9.375000E+00  0.000000E+00
  3.906250E-01  9.765625E+00  0.000000E+00
  3.906250E-01  1.015625E+01  0.000000E+00
  3.906250E-01  1.054688E+01  0.000000E+00
  3.906250E-01  1.093750E+01  0.000000E+00
  3.906250E-01  1.132812E+01  0.000000E+00
  3.906250E-01  1.171875E+01  0.000000E+00
  3.906250E-01  1.210938E+01  0.000000E+00
  3.906250E-01  1.250000E+01  0.000000E+00
  3.906250E-01  1.289062E+01  0.000000E+00
  3.906250E-01  1.328125E+01  0.000000E+00
  3.906250E-01  1.367188E+01  0.000000E+00
  3.906250E-01  1.406250E+01  0.000000E+00
  3.906250E-01  1.445312E+01  0.000000E+00
  3.906250E-01  1.484375E+01  0.000000E+00
  3.906250E-01  1.523438E+01  0.000000E+00
  3.906250E-01  1.562500E+01  0.000000E+00
  3.906250E-01  1.601562E+01  0.000000E+00
  3.906250E-01  1.640625E+01  0.000000E+00
  3.906250E-01  1.679688E+01  0.000000E+00
  3.906250E-01  1.718750E+01  0.000000E+00
  3.906250E-01  1.757812E+01  0.000000E+00
  3.906250E-01  1.796875E+01  0.000000E+00
  3.906250E-01  1.835938E+01  0.000000E+00
  3.906250E-01  1.875000E+01  0.000000E+00
  3.906250E-01  1.914062E+01  0.000000E+00
  3.906250E-01  1.953125E+01  0.000000E+00
  3.906250E-01  1.992188E+01  0.000000E+00
  3.906250E-01  2.031250E+01  0.000000E+00
  3.906250E-01  2.070312E+01  0.000000E+00
  3.906250E-01  2.109375E+01  0.000000E+00
  3.906250E-01  2.148438E+01  0.000000E+00
  3.906250E-01  2.187500E+01  0.000000E+00
  3.906250E-01  2.226562E+01  0.000000E+00
  3.906250E-01  2.265625E+01  0.000000E+00
  3.906250E-01  2.304688E+01  0.000000E+00
  3.906250E-01  2.343750E+01  0.000000E+00
  3.906250E-01  2.382812E+01  0.000000E+00
  3.906250E-01  2.421875E+01  0.000000E+00
  3.906250E-01  2.460938E+01  0.000000E+00
  7.812500E-01  0.000000E+00  0.000000E+00
  7.812500E-01  3.906250E-01  0.000000E+00
  7.812500E-01  7.812500E-01  0.000000E+00
  7.812500E-01  1.171875E+00  0.000000E+00
  7.812500E-01  1.562500E+00  0.000000E+00
  7.812500E-01  1.953125E+00  0.000000E+00
  7.812500E-01  2.343750E+00  0.000000E+00
  7.812500E-01  2.734375E+00  0.000000E+00
  7.812500E-01  3.125000E+00  0.000000E+00
  7.812500E-01  3.515625E+00  0.000000E+00
  7.812500E-01  3.906250E+00  0.000000E+00
  7.812500E-01  4.296875E+00  0.000000E+00
  7.812500E-01  4.687500E+00  0.000000E+00
  7.812500E-01  5.078125E+00  0.000000E+00
  7.812500E-01  5.468750E+00  0.000000E+00
  7.812500E-01  5.859375E+00  0.000000E+00
  7.812500E-01  6.250000E+00  0.000000E+00
  7.812500E-01  6.640625E+00  0.000000E+00
  7.812500E-01  7.031250E+00  0.000000E+00
  7.812500E-01  7.421875E+00  0.000000E+00
  7.812500E-01  7.812500E+00  0.000000E+00
  7.812500E-01  8.203125E+00  0.000000E+00
  7.812500E-01  8.593750E+00  0.000000E+00
  7.812500E-01  8.984375E+00  0.000000E+00
  7.812500E-01  9.375000E+00  0.000000E+00
  7.812500E-01  9.765625E+00  0.000000E+00
  7.812500E-01  1.015625E+01  0.000000E+00
  7.812500E-01  1.054688E+01  0.000000E+00
  7.812500E-01  1.093750E+01  0.000000E+00
  7.812500E-01  1.132812E+01  0.000000E+00
  7.812500E-01  1.171875E+01  0.000000E+00
  7.812500E-01  1.210938E+01  0.000000E+00
  7.812500E-01  1.250000E+01  0.000000E+00
  7.812500E-01  1.289062E+01  0.000000E+00
  7.812500E-01  1.328125E+01  0.000000E+00
  7.812500E-01  1.367188E+01  0.000000E+00
  7.812500E-01  1.406250E+01  0.000000E+00
  7.812500E-01  1.445312E+01  0.000000E+00
  7.812500E-01  1.484375E+01  0.000000E+00
  7.812500E-01  1.523438E+01  0.000000E+00
  7.812500E-01  1.562500E+01  0.000000E+00
  7.812500E-01  1.601562E+01  0.000000E+00
  7.812500E-01  1.640625E+01  0.000000E+00
  7.812500E-01  1.679688E+01  0.000000E+00
  7.812500E-01  1.718750E+01  0.000000E+00
  7.812500E-01  1.757812E+01  0.000000E+00
  7.812500E-01  1.796875E+01  0.000000E+00
  7.812500E-01  1.835938E+01  0.000000E+00
  7.812500E-01  1.875000E+01  0.000000E+00
  7.812500E-01  1.914062E+01  0.000000E+00
  7.812500E-01  1.953125E+01  0.000000E+00
  7.812500E-01  1.992188E+01  0.000000E+00
  7.812500E-01  2.031250E+01  0.000000E+00
  7.812500E-01  2.070312E+01  0.000000E+00
  7.812500E-01  2.109375E+01  0.000000E+00
  7.812500E-01  2.148438E+01  0.000000E+00
  7.812500E-01  2.187500E+01  0.000000E+00
  7.812500E-01  2.226562E+01  0.000000E+00
  7.812500E-01  2.265625E+01  0.000000E+00
  7.812500E-01  2.304688E+01  0.000000E+00
  7.812500E-01  2.343750E+01  0.000000E+00
  7.812500E-01  2.382812E+01  0.000000E+00
  7.812500E-01  2.421875E+01  0.000000E+00
  7.812500E-01  2.460938E+01  0.000000E+00
  1.171875E+00  0.000000E+00  0.000000E+00
  1.171875E+00  3.906250E-01  0.000000E+00
  1.171875E+00  7.812500E-01  0.000000E+00
  1.171875E+00  1.171875E+00  0.000000E+00
  1.171875E+00  1.562500E+00  0.000000E+00
  1.171875E+00  1.953125E+00  0.000000E+00
  1.171875E+00  2.343750E+00  0.000000E+00
  1.171875E+00  2.734375E+00  0.000000E+00
  1.171875E+00  3.125000E+00  0.000000E+00
  1.171875E+00  3.515625E+00  0.000000E+00
  1.171875E+00  3.906250E+00  0.000000E+00
  1.171875E+00  4.296875E+00  0.000000E+00
  1.171875E+00  4.687500E+00  0.000000E+00
  1.171875E+00  5.078125E+00  0.000000E+00
  1.171875E+00  5.468750E+00  0.000000E+00
  1.171875E+00  5.859375E+00  0.000000E+00
  1.171875E+00  6.250000E+00  0.000000E+00
  1.171875E+00  6.640625E+00  0.000000E+00
  1.171875E+00  7.031250E+00  0.000000E+00
  1.171875E+00  7.421875E+00  0.000000E+00
  1.171875E+00  7.812500E+00  0.000000E+00
  1.171875E+00  8.203125E+00  0.000000E+00
  1.171875E+00  8.593750E+00  0.000000E+00
  1.171875E+00  8.984375E+00  0.000000E+00
  1.171875E+00  9.375000E+00  0.000000E+00
  1.171875E+00  9.765625E+00  0.000000E+00
  1.171875E+00  1.015625E+01  0.000000E+00
  1.171875E+00  1.054688E+01  0.000000E+00
  1.171875E+00  1.093750E+01  0.000000E+00
  1.171875E+00  1.132812E+01  0.000000E+00
  1.171875E+00  1.171875E+01  0.000000E+00
  1.171875E+00  1.210938E+01  0.000000E+00
  1.171875E+00  1.250000E+01  0.000000E+00
  1.171875E+00  1.289062E+01  0.000000E+00
  1.171875E+00  1.328125E+01  0.000000E+00
  1.171875E+00  1.367188E+01  0.000000E+00
  1.171875E+00  1.406250E+01  0.000000E+00
  1.171875E+00  1.445312E+01  0.000000E+00
[...]
POINT_DATA   4096
SCALARS CON  float  1
LOOKUP_TABLE default
  4.585720E-01
  4.559449E-01
  4.607516E-01
  4.614487E-01
  4.627293E-01
  4.546430E-01
  4.528726E-01
  4.527640E-01
  4.609004E-01
  4.607644E-01
  4.599633E-01
  4.538714E-01
  4.557822E-01
  4.547070E-01
  4.571704E-01
  4.533704E-01
  4.556208E-01
  4.562804E-01
  4.618341E-01
  4.589524E-01
  4.582386E-01
  4.532608E-01
  4.540881E-01
  4.506391E-01
  4.527833E-01
  4.507111E-01
  4.525191E-01
  4.499360E-01
  4.555721E-01
  4.590536E-01
  4.639445E-01
  4.570304E-01
  4.526451E-01
  4.495604E-01
  4.578249E-01
  4.597066E-01
  4.599080E-01
  4.534036E-01
  4.537221E-01
  4.500054E-01
  4.519921E-01
  4.516452E-01
  4.548491E-01
  4.501334E-01
  4.522198E-01
  4.528477E-01
  4.550238E-01
  4.499410E-01
  4.558764E-01
  4.615365E-01
  4.642213E-01
  4.540533E-01
  4.520551E-01
  4.513317E-01
  4.559712E-01
  4.568401E-01
  4.654291E-01
  4.674209E-01
  4.679249E-01
  4.610486E-01
  4.618842E-01
  4.602230E-01
  4.621906E-01
  4.579533E-01
  4.579973E-01
  4.562526E-01
  4.637652E-01
  4.686625E-01
  4.696173E-01
  4.587782E-01
  4.523110E-01
  4.509103E-01
  4.586670E-01
  4.591785E-01
  4.571102E-01
  4.525338E-01
  4.568523E-01
  4.583318E-01
  4.588502E-01
  4.532364E-01
  4.540720E-01
  4.563963E-01
  4.638909E-01
  4.642740E-01
  4.625834E-01
  4.540980E-01
  4.504796E-01
  4.479596E-01
  4.528369E-01
  4.541683E-01
  4.562334E-01
  4.534216E-01
  4.563138E-01
  4.583421E-01
  4.621254E-01
  4.570416E-01
  4.539798E-01
  4.519033E-01
  4.567617E-01
  4.559797E-01
  4.559186E-01
  4.527484E-01
  4.541652E-01
  4.519983E-01
  4.533968E-01
  4.508366E-01
  4.501570E-01
  4.456805E-01
  4.476263E-01
  4.488137E-01
  4.524195E-01
  4.519932E-01
  4.603545E-01
  4.677695E-01
  4.694120E-01
  4.575165E-01
  4.520829E-01
  4.516303E-01
  4.580639E-01
  4.609460E-01
  4.669364E-01
  4.664876E-01
  4.648357E-01
  4.574749E-01
  4.564158E-01
  4.563083E-01
  4.608525E-01
  4.588619E-01
  4.511296E-01
  4.550536E-01
  4.652267E-01
  4.701698E-01
  4.675647E-01
  4.572840E-01
  4.534970E-01
  4.542027E-01
  4.584038E-01
  4.575883E-01
  4.572580E-01
  4.561042E-01
  4.587592E-01
  4.589319E-01
  4.593710E-01
  4.563000E-01
  4.568776E-01
  4.582475E-01
  4.622485E-01
  4.616771E-01
  4.607462E-01
  4.560876E-01
  4.533686E-01
  4.505434E-01
  4.529323E-01
  4.536283E-01
  4.539301E-01
  4.510761E-01
  4.529747E-01
  4.543853E-01
  4.554043E-01
  4.511468E-01
  4.502448E-01
  4.517769E-01
  4.578343E-01
  4.588890E-01
  4.581572E-01
  4.547524E-01
  4.546689E-01
  4.525850E-01
  4.529556E-01
  4.513837E-01
  4.500065E-01
  4.445590E-01
  4.437540E-01
  4.461048E-01
  4.529584E-01
  4.573105E-01
  4.650743E-01
  4.696075E-01
  4.678003E-01
  4.569618E-01
  4.524253E-01
  4.532751E-01
  4.582631E-01
  4.604288E-01
  4.654828E-01
  4.673371E-01
  4.656711E-01
  4.562152E-01
  4.502262E-01
  4.479330E-01
  4.503857E-01
  4.494324E-01
  4.500035E-01
  4.553790E-01
  4.648998E-01
  4.701037E-01
  4.637152E-01
  4.534120E-01
  4.488235E-01
  4.514293E-01
  4.549245E-01
  4.567941E-01
  4.571750E-01
  4.591865E-01
  4.617457E-01
  4.623350E-01
  4.588817E-01
  4.556365E-01
  4.555472E-01
  4.585627E-01
  4.603022E-01
  4.600049E-01
  4.582584E-01
  4.572938E-01
  4.568373E-01
  4.580553E-01
  4.592960E-01
  4.590167E-01
  4.559308E-01
  4.528659E-01
  4.508715E-01
  4.514775E-01
  4.534039E-01
  4.554691E-01
  4.559427E-01
  4.563682E-01
  4.558930E-01
  4.549314E-01
  4.536495E-01
  4.533842E-01
  4.539651E-01
  4.572577E-01
  4.593547E-01
  4.561944E-01
  4.502035E-01
  4.488702E-01
  4.508836E-01
  4.532652E-01
  4.545926E-01
  4.564071E-01
  4.592166E-01
  4.628380E-01
  4.612404E-01
  4.546735E-01
  4.506054E-01
  4.548773E-01
  4.619671E-01
  4.665210E-01
  4.675892E-01
  4.674298E-01
  4.632823E-01
  4.556868E-01
  4.496242E-01
  4.496745E-01
  4.510881E-01
  4.505351E-01
  4.472880E-01
  4.577161E-01
  4.626989E-01
  4.668892E-01
  4.572406E-01
  4.520788E-01
  4.481127E-01
  4.530452E-01
  4.516849E-01
  4.559184E-01
  4.565226E-01
  4.619090E-01
  4.593444E-01
  4.604404E-01
  4.562673E-01
  4.583716E-01
  4.565333E-01
  4.606690E-01
  4.577965E-01
  4.584295E-01
  4.550792E-01
  4.597719E-01
  4.586283E-01
  4.600335E-01
  4.552722E-01
  4.568579E-01
  4.532038E-01
  4.539633E-01
  4.488508E-01
  4.502653E-01
  4.497273E-01
  4.563109E-01
  4.548101E-01
  4.559328E-01
  4.534087E-01
  4.580839E-01
  4.550385E-01
  4.543879E-01
  4.503224E-01
  4.559468E-01
  4.557953E-01
  4.557634E-01
  4.490445E-01
  4.525043E-01
  4.544988E-01
  4.605988E-01
  4.573665E-01
  4.562270E-01
  4.508957E-01
  4.551954E-01
  4.543518E-01
  4.547373E-01
  4.497916E-01
  4.548638E-01
  4.563712E-01
  4.609974E-01
  4.598620E-01
  4.648006E-01
  4.608311E-01
  4.575283E-01
  4.494823E-01
  4.494995E-01
  4.445157E-01
  4.462069E-01
  4.534452E-01
  4.610832E-01
  4.603919E-01
  4.643211E-01
  4.555932E-01
  4.527439E-01
  4.452925E-01
  4.483812E-01
  4.459580E-01
  4.529498E-01
  4.527084E-01
  4.590754E-01
  4.568676E-01
  4.604274E-01
  4.542418E-01
  4.558266E-01
  4.524696E-01
  4.592411E-01
  4.584634E-01
  4.627004E-01
  4.574193E-01
  4.603709E-01
  4.555950E-01
  4.563381E-01
  4.493967E-01
  4.532131E-01
  4.523806E-01
  4.578396E-01
  4.512742E-01
  4.521164E-01
  4.524093E-01
  4.641353E-01
  4.612825E-01
  4.579757E-01
  4.486520E-01
  4.533404E-01
  4.520539E-01
  4.552587E-01
  4.512376E-01
  4.591155E-01
  4.575287E-01
  4.551595E-01
  4.453252E-01
  4.539580E-01
  4.609589E-01
  4.698112E-01
  4.618710E-01
  4.565062E-01
  4.463255E-01
  4.520651E-01
  4.534192E-01
  4.568304E-01
  4.494454E-01
  4.536816E-01
  4.532034E-01
  4.580029E-01
  4.536275E-01
  4.575953E-01
  4.536498E-01
  4.570522E-01
  4.539854E-01
  4.576669E-01
  4.517045E-01
  4.546599E-01
  4.553835E-01
  4.594490E-01
  4.573166E-01
  4.578361E-01
  4.531800E-01
  4.527150E-01
  4.500380E-01
  4.508056E-01
  4.473499E-01
  4.507008E-01
  4.529457E-01
  4.576735E-01
  4.550582E-01
  4.548244E-01
  4.518895E-01
  4.543862E-01
  4.540235E-01
  4.589157E-01
  4.602100E-01
  4.627417E-01
  4.590876E-01
  4.600068E-01
  4.559169E-01
  4.510515E-01
  4.417358E-01
  4.429097E-01
  4.470070E-01
  4.551155E-01
  4.537025E-01
  4.528039E-01
  4.530538E-01
  4.620859E-01
  4.610351E-01
  4.554152E-01
  4.492262E-01
  4.556434E-01
  4.587514E-01
  4.599437E-01
  4.555763E-01
  4.578092E-01
  4.554028E-01
  4.525726E-01
  4.466291E-01
  4.519860E-01
  4.591074E-01
  4.681364E-01
  4.658005E-01
  4.602050E-01
  4.507238E-01
  4.523143E-01
  4.541031E-01
  4.562426E-01
  4.518306E-01
  4.529751E-01
  4.504992E-01
  4.504916E-01
  4.482355E-01
  4.524479E-01
  4.531893E-01
  4.583476E-01
  4.595010E-01
  4.603211E-01
  4.539005E-01
  4.544948E-01
  4.568479E-01
  4.543633E-01
  4.541258E-01
  4.560818E-01
  4.565613E-01
  4.562069E-01
  4.555950E-01
  4.542528E-01
  4.521917E-01
  4.524809E-01
  4.546653E-01
  4.570186E-01
  4.569849E-01
  4.548796E-01
  4.528243E-01
  4.541387E-01
  4.576424E-01
  4.622817E-01
  4.661226E-01
  4.664394E-01
  4.620832E-01
  4.586161E-01
  4.571281E-01
  4.537249E-01
  4.476088E-01
  4.454018E-01
  4.497680E-01
  4.565842E-01
  4.579302E-01
  4.553252E-01
  4.573934E-01
  4.654191E-01
  4.674056E-01
  4.596970E-01
  4.522805E-01
  4.541069E-01
  4.599046E-01
  4.617012E-01
  4.596290E-01
  4.600799E-01
  4.606093E-01
  4.562422E-01
  4.506621E-01
  4.524218E-01
  4.591795E-01
  4.643962E-01
  4.644793E-01
  4.602669E-01
  4.549476E-01
  4.543539E-01
  4.562970E-01
  4.556515E-01
  4.530603E-01
  4.535510E-01
  4.553544E-01
  4.555535E-01
  4.535003E-01
  4.513546E-01
  4.512288E-01
  4.558854E-01
  4.613687E-01
  4.628959E-01
  4.609703E-01
  4.593358E-01
  4.492700E-01
  4.495786E-01
  4.517664E-01
  4.571016E-01
  4.580495E-01
  4.603758E-01
  4.619962E-01
  4.630243E-01
  4.584784E-01
  4.572661E-01
  4.582114E-01
  4.608543E-01
  4.574677E-01
  4.548503E-01
  4.547357E-01
  4.605031E-01
  4.635448E-01
  4.663862E-01
  4.664073E-01
  4.655379E-01
  4.595050E-01
  4.573080E-01
  4.570174E-01
  4.571069E-01
  4.520037E-01
  4.504169E-01
  4.515588E-01
  4.568821E-01
  4.577955E-01
  4.567202E-01
  4.554893E-01
  4.610843E-01
  4.631224E-01
  4.610294E-01
  4.575211E-01
  4.616412E-01
  4.643552E-01
  4.632823E-01
  4.572724E-01
  4.559415E-01
  4.558068E-01
  4.571831E-01
  4.547951E-01
  4.539770E-01
  4.529043E-01
  4.558197E-01
  4.573032E-01
  4.585266E-01
  4.561333E-01
  4.571900E-01
  4.575659E-01
  4.577395E-01
  4.544645E-01
  4.546737E-01
  4.551936E-01
  4.582434E-01
  4.578652E-01
  4.565400E-01
  4.528082E-01
  4.537452E-01
  4.538067E-01
  4.537149E-01
  4.512941E-01
  4.516068E-01
  4.492978E-01
  4.489887E-01
  4.525595E-01
  4.603673E-01
  4.602312E-01
  4.596468E-01
  4.578478E-01
  4.598782E-01
  4.584186E-01
  4.595962E-01
  4.588715E-01
  4.609086E-01
  4.588705E-01
  4.584832E-01
  4.564450E-01
  4.586040E-01
  4.575328E-01
  4.594884E-01
  4.609866E-01
  4.635981E-01
  4.576911E-01
  4.536801E-01
  4.523385E-01
  4.567947E-01
  4.569808E-01
  4.585518E-01
  4.580344E-01
  4.604743E-01
  4.581673E-01
  4.568216E-01
  4.552531E-01
  4.605119E-01
  4.622976E-01
  4.620363E-01
  4.574012E-01
  4.589859E-01
  4.598677E-01
  4.600197E-01
  4.546474E-01
  4.544987E-01
  4.542864E-01
  4.561850E-01
  4.549995E-01
  4.570065E-01
  4.546810E-01
  4.530417E-01
  4.495123E-01
  4.511264E-01
  4.523324E-01
  4.582597E-01
  4.605817E-01
  4.608548E-01
  4.551565E-01
  4.550730E-01
  4.581315E-01
  4.657265E-01
  4.653930E-01
  4.608363E-01
  4.524788E-01
  4.511994E-01
  4.502598E-01
  4.525248E-01
  4.526822E-01
  4.540621E-01
  4.484666E-01
  4.491362E-01
  4.530384E-01
  4.572499E-01
  4.567511E-01
  4.554902E-01
  4.568251E-01
  4.591865E-01
  4.587243E-01
  4.581771E-01
  4.588420E-01
  4.597333E-01
  4.578606E-01
  4.556954E-01
  4.549800E-01
  4.550180E-01
  4.528895E-01
  4.523825E-01
  4.555289E-01
  4.589007E-01
  4.568736E-01
  4.532606E-01
  4.517902E-01
  4.524664E-01
  4.532901E-01
  4.560801E-01
  4.589471E-01
  4.603177E-01
  4.586770E-01
  4.553143E-01
  4.516617E-01
  4.513916E-01
  4.528344E-01
  4.541459E-01
  4.554346E-01
  4.590249E-01
  4.609577E-01
  4.588698E-01
  4.539184E-01
  4.497485E-01
  4.471664E-01
  4.495889E-01
  4.552253E-01
  4.585931E-01
  4.559836E-01
  4.517368E-01
  4.488561E-01
  4.497356E-01
  4.536979E-01
  4.592966E-01
  4.617420E-01
  4.601611E-01
  4.561983E-01
  4.545284E-01
  4.564987E-01
  4.615768E-01
  4.642796E-01
  4.621474E-01
  4.568547E-01
  4.541114E-01
  4.537372E-01
  4.535590E-01
  4.517929E-01
  4.502228E-01
  4.521896E-01
  4.506410E-01
  4.521564E-01
  4.550979E-01
  4.560837E-01
  4.558559E-01
  4.563511E-01
  4.565535E-01
  4.557654E-01
  4.552491E-01
  4.556846E-01
  4.569596E-01
  4.578210E-01
  4.565099E-01
  4.537380E-01
  4.519178E-01
  4.519084E-01
  4.545450E-01
  4.599361E-01
  4.636979E-01
  4.614730E-01
  4.561939E-01
  4.529099E-01
  4.520565E-01
  4.527981E-01
  4.563175E-01
  4.616723E-01
  4.645090E-01
  4.623244E-01
  4.575515E-01
  4.541194E-01
  4.536081E-01
  4.542636E-01
  4.535521E-01
  4.520125E-01
  4.527222E-01
  4.555212E-01
  4.569031E-01
  4.557222E-01
  4.530479E-01
  4.495211E-01
  4.484072E-01
  4.529093E-01
  4.592287E-01
  4.609615E-01
  4.578943E-01
  4.543356E-01
  4.540799E-01
  4.577700E-01
  4.617090E-01
  4.612026E-01
  4.567460E-01
  4.529823E-01
  4.529470E-01
  4.562144E-01
  4.603950E-01
  4.621425E-01
  4.598981E-01
  4.565399E-01
  4.567008E-01
  4.601587E-01
  4.618413E-01
  4.593743E-01
  4.554421E-01
  4.504594E-01
  4.534275E-01
  4.522871E-01
  4.545194E-01
  4.548686E-01
  4.587430E-01
  4.592293E-01
  4.586262E-01
  4.530366E-01
  4.533729E-01
  4.548444E-01
  4.586062E-01
  4.560891E-01
  4.542388E-01
  4.516636E-01
  4.554484E-01
  4.578917E-01
  4.625125E-01
  4.634397E-01
  4.651042E-01
  4.613248E-01
  4.593233E-01
  4.546232E-01
  4.519660E-01
  4.477681E-01
  4.513151E-01
  4.561033E-01
  4.620488E-01
  4.606138E-01
  4.585050E-01
  4.534006E-01
  4.537189E-01
  4.533007E-01
  4.549421E-01
  4.537290E-01
  4.567205E-01
  4.566586E-01
  4.574839E-01
  4.547288E-01
  4.535645E-01
  4.486557E-01
  4.495951E-01
  4.518582E-01
  4.558281E-01
  4.547439E-01
  4.573507E-01
  4.579123E-01
  4.604974E-01
  4.604403E-01
  4.616742E-01
  4.562859E-01
  4.527918E-01
  4.498375E-01
  4.515897E-01
  4.502115E-01
  4.526540E-01
  4.547126E-01
  4.593450E-01
  4.589131E-01
  4.606574E-01
  4.599750E-01
  4.589710E-01
  4.518750E-01
  4.502266E-01
  4.542626E-01
  4.567582E-01
  4.547078E-01
  4.578081E-01
  4.577894E-01
  4.597826E-01
  4.557483E-01
  4.534887E-01
  4.493114E-01
  4.524625E-01
  4.534468E-01
  4.570434E-01
  4.554187E-01
  4.550954E-01
  4.509933E-01
  4.539866E-01
  4.561681E-01
  4.610225E-01
  4.606924E-01
  4.629793E-01
  4.598469E-01
  4.586874E-01
  4.540889E-01
  4.537636E-01
  4.503435E-01
  4.521378E-01
  4.529026E-01
  4.577835E-01
  4.569660E-01
  4.577940E-01
  4.558311E-01
  4.599006E-01
  4.603106E-01
  4.604487E-01
  4.543676E-01
  4.539166E-01
  4.527016E-01
  4.550421E-01
  4.537607E-01
  4.572861E-01
  4.563561E-01
  4.566883E-01
  4.531558E-01
  4.539574E-01
  4.522779E-01
  4.561279E-01
  4.563586E-01
  4.579528E-01
  4.554123E-01
  4.563515E-01
  4.517993E-01
  4.507625E-01
  4.493162E-01
  4.532705E-01
  4.528060E-01
  4.554021E-01
  4.550134E-01
  4.583910E-01
  4.578422E-01
  4.604824E-01
  4.583021E-01
  4.573087E-01
  4.521530E-01
  4.537838E-01
  4.541305E-01
  4.564401E-01
  4.548567E-01
  4.553259E-01
  4.558545E-01
  4.575338E-01
  4.570763E-01
  4.559719E-01
  4.530881E-01
  4.530056E-01
  4.532962E-01
  4.545182E-01
  4.530419E-01
  4.520095E-01
  4.516952E-01
  4.550743E-01
  4.565045E-01
  4.559074E-01
  4.535592E-01
  4.554326E-01
  4.580417E-01
  4.598380E-01
  4.573359E-01
  4.549197E-01
  4.517454E-01
  4.498143E-01
  4.472613E-01
  4.489624E-01
  4.524640E-01
  4.553814E-01
  4.539433E-01
  4.548888E-01
  4.563444E-01
  4.566340E-01
  4.544658E-01
  4.558449E-01
  4.562307E-01
  4.548858E-01
  4.524238E-01
  4.543883E-01
  4.567056E-01
  4.591884E-01
  4.576493E-01
  4.537394E-01
  4.497455E-01
  4.525225E-01
  4.552971E-01
  4.550225E-01
  4.518164E-01
  4.507787E-01
  4.487632E-01
  4.497738E-01
  4.531605E-01
  4.575851E-01
  4.570870E-01
  4.558915E-01
  4.549008E-01
  4.569249E-01
  4.578399E-01
  4.578073E-01
  4.537882E-01
  4.498113E-01
  4.469208E-01
  4.500133E-01
  4.612051E-01
  4.570018E-01
  4.545993E-01
  4.527866E-01
  4.553742E-01
  4.553760E-01
  4.567984E-01
  4.560277E-01
  4.572177E-01
  4.540454E-01
  4.521923E-01
  4.505556E-01
  4.535386E-01
  4.535710E-01
  4.555251E-01
  4.566425E-01
  4.589082E-01
  4.551225E-01
  4.540909E-01
  4.561073E-01
  4.624513E-01
  4.618856E-01
  4.591856E-01
  4.554262E-01
  4.562272E-01
  4.525111E-01
  4.490505E-01
  4.476489E-01
  4.534853E-01
  4.548834E-01
  4.543944E-01
  4.532131E-01
  4.569912E-01
  4.557352E-01
  4.537497E-01
  4.520421E-01
  4.550950E-01
  4.533452E-01
  4.529704E-01
  4.545454E-01
  4.598738E-01
  4.588312E-01
  4.572792E-01
  4.542724E-01
  4.555870E-01
  4.560040E-01
  4.567366E-01
  4.517322E-01
  4.499022E-01
  4.490927E-01
  4.510093E-01
  4.507271E-01
  4.555063E-01
  4.599428E-01
  4.644632E-01
  4.619637E-01
  4.581353E-01
  4.521166E-01
  4.511732E-01
  4.494836E-01
  4.499494E-01
  4.498471E-01
  4.552325E-01
  4.588723E-01
  4.650823E-01
  4.602321E-01
  4.563035E-01
  4.514877E-01
  4.533299E-01
  4.537172E-01
  4.574460E-01
  4.576792E-01
  4.591093E-01
  4.548958E-01
  4.542034E-01
  4.523041E-01
  4.531006E-01
  4.508376E-01
  4.560277E-01
  4.615685E-01
  4.664421E-01
  4.608190E-01
  4.569783E-01
  4.559134E-01
  4.623433E-01
  4.619866E-01
  4.582648E-01
  4.509410E-01
  4.510876E-01
  4.489201E-01
  4.481160E-01
  4.476892E-01
  4.547332E-01
  4.539654E-01
  4.495619E-01
  4.453082E-01
  4.514861E-01
  4.551433E-01
  4.591227E-01
  4.593436E-01
  4.607266E-01
  4.548812E-01
  4.523111E-01
  4.507278E-01
  4.538430E-01
  4.526662E-01
  4.541573E-01
  4.529071E-01
  4.562182E-01
  4.572471E-01
  4.578505E-01
  4.511912E-01
  4.499534E-01
  4.504720E-01
  4.544713E-01
  4.536975E-01
  4.572127E-01
  4.590220E-01
  4.616832E-01
  4.569697E-01
  4.537428E-01
  4.491630E-01
  4.495491E-01
  4.465008E-01
  4.468491E-01
  4.478325E-01
  4.561435E-01
  4.612972E-01
  4.696755E-01
  4.635122E-01
  4.580546E-01
  4.550879E-01
  4.554026E-01
  4.537353E-01
  4.513585E-01
  4.507459E-01
  4.540262E-01
  4.552495E-01
  4.549668E-01
  4.537794E-01
  4.528577E-01
  4.505520E-01
  4.522443E-01
  4.575993E-01
  4.627260E-01
  4.612595E-01
  4.579169E-01
  4.565778E-01
  4.586321E-01
  4.576962E-01
  4.536805E-01
  4.495748E-01
  4.504758E-01
  4.513889E-01
  4.516029E-01
  4.532760E-01
  4.575558E-01
  4.560874E-01
  4.511549E-01
  4.501742E-01
  4.569579E-01
  4.622958E-01
  4.626800E-01
  4.593047E-01
  4.568815E-01
  4.536113E-01
  4.525845E-01
  4.538112E-01
  4.551041E-01
  4.520472E-01
  4.511606E-01
  4.550678E-01
  4.615814E-01
  4.624656E-01
  4.571525E-01
  4.489588E-01
  4.472124E-01
  4.517144E-01
  4.574046E-01
  4.574951E-01
  4.565452E-01
  4.574559E-01
  4.596061E-01
  4.567275E-01
  4.520513E-01
  4.490825E-01
  4.498826E-01
  4.495975E-01
  4.501483E-01
  4.542250E-01
  4.635075E-01
  4.697861E-01
  4.632916E-01
  4.613521E-01
  4.568822E-01
  4.549088E-01
  4.544388E-01
  4.541104E-01
  4.513882E-01
  4.508342E-01
  4.521591E-01
  4.547814E-01
  4.555895E-01
  4.550829E-01
  4.506450E-01
  4.470003E-01
  4.473944E-01
  4.525391E-01
  4.559110E-01
  4.564847E-01
  4.535673E-01
  4.514692E-01
  4.514827E-01
  4.545241E-01
  4.548348E-01
  4.531773E-01
  4.514655E-01
  4.517261E-01
  4.510270E-01
  4.533534E-01
  4.570063E-01
  4.574720E-01
  4.528413E-01
  4.524648E-01
  4.571920E-01
  4.627678E-01
  4.631715E-01
  4.605148E-01
  4.557409E-01
  4.532008E-01
  4.525720E-01
  4.536890E-01
  4.527636E-01
  4.522382E-01
  4.530083E-01
  4.570532E-01
  4.604658E-01
  4.610970E-01
  4.557756E-01
  4.498208E-01
  4.472745E-01
  4.509030E-01
  4.549001E-01
  4.565370E-01
  4.553390E-01
  4.559856E-01
  4.551097E-01
  4.520048E-01
  4.494403E-01
  4.531177E-01
  4.574738E-01
  4.583425E-01
  4.551468E-01
  4.546548E-01
  4.573991E-01
  4.621046E-01
  4.605312E-01
  4.573293E-01
  4.565904E-01
  4.546431E-01
  4.563392E-01
  4.542050E-01
  4.525494E-01
  4.491771E-01
  4.509638E-01
  4.507477E-01
  4.522987E-01
  4.513350E-01
  4.527706E-01
  4.507010E-01
  4.506995E-01
  4.483683E-01
  4.494441E-01
  4.493801E-01
  4.517521E-01
  4.494182E-01
  4.499342E-01
  4.519678E-01
  4.585430E-01
  4.600360E-01
  4.608370E-01
  4.570131E-01
  4.558845E-01
  4.551532E-01
  4.587664E-01
  4.577200E-01
  4.579964E-01
  4.582738E-01
  4.630148E-01
  4.623777E-01
  4.590616E-01
  4.513003E-01
  4.499093E-01
  4.506213E-01
  4.549634E-01
  4.558851E-01
  4.577154E-01
  4.545818E-01
  4.547497E-01
  4.564196E-01
  4.609185E-01
  4.575847E-01
  4.533448E-01
  4.481446E-01
  4.483744E-01
  4.482367E-01
  4.517925E-01
  4.515937E-01
  4.530751E-01
  4.542562E-01
  4.585534E-01
  4.566970E-01
  4.563776E-01
  4.570802E-01
  4.623172E-01
  4.626622E-01
  4.623397E-01
  4.587105E-01
  4.596655E-01
  4.594395E-01
  4.549321E-01
  4.536055E-01
  4.572002E-01
  4.526492E-01
  4.550116E-01
  4.527262E-01
  4.577581E-01
  4.534385E-01
  4.525205E-01
  4.458866E-01
  4.502692E-01
  4.504948E-01
  4.560904E-01
  4.542967E-01
  4.593837E-01
  4.551596E-01
  4.544150E-01
  4.482397E-01
  4.507605E-01
  4.460136E-01
  4.494639E-01
  4.517901E-01
  4.620758E-01
  4.602608E-01
  4.603848E-01
  4.537950E-01
  4.563688E-01
  4.553459E-01
  4.611966E-01
  4.563595E-01
  4.558412E-01
  4.520154E-01
  4.582362E-01
  4.563095E-01
  4.574818E-01
  4.512246E-01
  4.541446E-01
  4.523881E-01
  4.557328E-01
  4.507853E-01
  4.540358E-01
  4.526235E-01
  4.573464E-01
  4.540926E-01
  4.562341E-01
  4.504972E-01
  4.523814E-01
  4.500666E-01
  4.537813E-01