# vtk DataFile Version 2.0
title
ASCII
DATASET STRUCTURED_GRID
DIMENSIONS   64   64    1
POINTS   4096  float
  0.000000E+00  0.000000E+00  0.000000E+00
  0.000000E+00  3.906250E-01  0.000000E+00
  0.000000E+00  7.812500E-01  0.000000E+00
  0.000000E+00  1.171875E+00  0.000000E+00
  0.000000E+00  1.562500E+00  0.000000E+00
  0.000000E+00  1.953125E+00  0.000000E+00
  0.000000E+00  2.343750E+00  0.000000E+00
  0.000000E+00  2.734375E+00  0.000000E+00
  0.000000E+00  3.125000E+00  0.000000E+00
  0.000000E+00  3.515625E+00  0.000000E+00
  0.000000E+00  3.906250E+00  0.000000E+00
  0.000000E+00  4.296875E+00  0.000000E+00
  0.000000E+00  4.687500E+00  0.000000E+00
  0.000000E+00  5.078125E+00  0.000000E+00
  0.000000E+00  5.468750E+00  0.000000E+00
  0.000000E+00  5.859375E+00  0.000000E+00
  0.000000E+00  6.250000E+00  0.000000E+00
  0.000000E+00  6.640625E+00  0.000000E+00
  0.000000E+00  7.031250E+00  0.000000E+00
  0.000000E+00  7.421875E+00  0.000000E+00
  0.000000E+00  7.812500E+00  0.000000E+00
  0.000000E+00  8.203125E+00  0.000000E+00
  0.000000E+00  8.593750E+00  0.000000E+00
  0.000000E+00  8.984375E+00  0.000000E+00
  0.000000E+00  9.375000E+00  0.000000E+00
  0.000000E+00  9.765625E+00  0.000000E+00
  0.000000E+00  1.015625E+01  0.000000E+00
  0.000000E+00  1.054688E+01  0.000000E+00
  0.000000E+00  1.093750E+01  0.000000E+00
  0.000000E+00  1.132812E+01  0.000000E+00
  0.000000E+00  1.171875E+01  0.000000E+00
  0.000000E+00  1.210938E+01  0.000000E+00
  0.000000E+00  1.250000E+01  0.000000E+00
  0.000000E+00  1.289062E+01  0.000000E+00
  0.000000E+00  1.328125E+01  0.000000E+00
  0.000000E+00  1.367188E+01  0.000000E+00
  0.000000E+00  1.406250E+01  0.000000E+00
  0.000000E+00  1.445312E+01  0.000000E+00
  0.000000E+00  1.484375E+01  0.000000E+00
  0.000000E+00  1.523438E+01  0.000000E+00
  0.000000E+00  1.562500E+01  0.000000E+00
  0.000000E+00  1.601562E+01  0.000000E+00
  0.000000E+00  1.640625E+01  0.000000E+00
  0.000000E+00  1.679688E+01  0.000000E+00
  0.000000E+00  1.718750E+01  0.000000E+00
  0.000000E+00  1.757812E+01  0.000000E+00
  0.000000E+00  1.796875E+01  0.000000E+00
  0.000000E+00  1.835938E+01  0.000000E+00
  0.000000E+00  1.875000E+01  0.000000E+00
  0.000000E+00  1.914062E+01  0.000000E+00
  0.000000E+00  1.953125E+01  0.000000E+00
  0.000000E+00  1.992188E+01  0.000000E+00
  0.000000E+00  2.031250E+01  0.000000E+00
  0.000000E+00  2.070312E+01  0.000000E+00
  0.000000E+00  2.109375E+01  0.000000E+00
  0.000000E+00  2.148438E+01  0.000000E+00
  0.000000E+00  2.187500E+01  0.000000E+00
  0.000000E+00  2.226562E+01  0.000000E+00
  0.000000E+00  2.265625E+01  0.000000E+00
  0.000000E+00  2.304688E+01  0.000000E+00
  0.000000E+00  2.343750E+01  0.000000E+00
  0.000000E+00  2.382812E+01  0.000000E+00
  0.000000E+00  2.421875E+01  0.000000E+00
  0.000000E+00  2.460938E+01  0.000000E+00
  3.906250E-01  0.000000E+00  0.000000E+00
  3.906250E-01  3.906250E-01  0.000000E+00
  3.906250E-01  7.812500E-01  0.000000E+00
  3.906250E-01  1.171875E+00  0.000000E+00
  3.906250E-01  1.562500E+00  0.000000E+00
  3.906250E-01  1.953125E+00  0.000000E+00
  3.906250E-01  2.343750E+00  0.000000E+00
  3.906250E-01  2.734375E+00  0.000000E+00
  3.906250E-01  3.125000E+00  0.000000E+00
  3.906250E-01  3.515625E+00  0.000000E+00
  3.906250E-01  3.906250E+00  0.000000E+00
  3.906250E-01  4.296875E+00  0.000000E+00
  3.906250E-01  4.687500E+00  0.000000E+00
  3.906250E-01  5.078125E+00  0.000000E+00
  3.906250E-01  5.468750E+00  0.000000E+00
  3.906250E-01  5.859375E+00  0.000000E+00
  3.906250E-01  6.250000E+00  0.000000E+00
  3.906250E-01  6.640625E+00  0.000000E+00
  3.906250E-01  7.031250E+00  0.000000E+00
  3.906250E-01  7.421875E+00  0.000000E+00
  3.906250E-01  7.812500E+00  0.000000E+00
  3.906250E-01  8.203125E+00  0.000000E+00
  3.906250E-01  8.593750E+00  0.000000E+00
  3.906250E-01  8.984375E+00  0.000000E+00
  3.906250E-01  9.375000E+00  0.000000E+00
  3.906250E-01  9.765625E+00  0.000000E+00
  3.906250E-01  1.015625E+01  0.000000E+00
  3.906250E-01  1.054688E+01  0.000000E+00
  3.906250E-01  1.093750E+01  0.000000E+00
  3.906250E-01  1.132812E+01  0.000000E+00
  3.906250E-01  1.171875E+01  0.000000E+00
  3.906250E-01  1.210938E+01  0.000000E+00
  3.906250E-01  1.250000E+01  0.000000E+00
  3.906250E-01  1.289062E+01  0.000000E+00
  3.906250E-01  1.328125E+01  0.000000E+00
  3.906250E-01  1.367188E+01  0.000000E+00
  3.906250E-01  1.406250E+01  0.000000E+00
  3.906250E-01  1.445312E+01  0.000000E+00
  3.906250E-01  1.484375E+01  0.000000E+00
  3.906250E-01  1.523438E+01  0.000000E+00
  3.906250E-01  1.562500E+01  0.000000E+00
  3.906250E-01  1.601562E+01  0.000000E+00
  3.906250E-01  1.640625E+01  0.000000E+00
  3.906250E-01  1.679688E+01  0.000000E+00
  3.906250E-01  1.718750E+01  0.000000E+00
  3.906250E-01  1.757812E+01  0.000000E+00
  3.906250E-01  1.796875E+01  0.000000E+00
  3.906250E-01  1.835938E+01  0.000000E+00
  3.906250E-01  1.875000E+01  0.000000E+00
  3.906250E-01  1.914062E+01  0.000000E+00
  3.906250E-01  1.953125E+01  0.000000E+00
  3.906250E-01  1.992188E+01  0.000000E+00
  3.906250E-01  2.031250E+01  0.000000E+00
  3.906250E-01  2.070312E+01  0.000000E+00
  3.906250E-01  2.109375E+01  0.000000E+00
  3.906250E-01  2.148438E+01  0.000000E+00
  3.906250E-01  2.187500E+01  0.000000E+00
  3.906250E-01  2.226562E+01  0.000000E+00
  3.906250E-01  2.265625E+01  0.000000E+00
  3.906250E-01  2.304688E+01  0.000000E+00
  3.906250E-01  2.343750E+01  0.000000E+00
  3.906250E-01  2.382812E+01  0.000000E+00
  3.906250E-01  2.421875E+01  0.000000E+00
  3.906250E-01  2.460938E+01  0.000000E+00
  7.812500E-01  0.000000E+00  0.000000E+00
  7.812500E-01  3.906250E-01  0.000000E+00
  7.812500E-01  7.812500E-01  0.000000E+00
  7.812500E-01  1.171875E+00  0.000000E+00
  7.812500E-01  1.562500E+00  0.000000E+00
  7.812500E-01  1.953125E+00  0.000000E+00
  7.812500E-01  2.343750E+00  0.000000E+00
  7.812500E-01  2.734375E+00  0.000000E+00
  7.812500E-01  3.125000E+00  0.000000E+00
  7.812500E-01  3.515625E+00  0.000000E+00
  7.812500E-01  3.906250E+00  0.000000E+00
  7.812500E-01  4.296875E+00  0.000000E+00
  7.812500E-01  4.687500E+00  0.000000E+00
  7.812500E-01  5.078125E+00  0.000000E+00
  7.812500E-01  5.468750E+00  0.000000E+00
  7.812500E-01  5.859375E+00  0.000000E+00
  7.812500E-01  6.250000E+00  0.000000E+00
  7.812500E-01  6.640625E+00  0.000000E+00
  7.812500E-01  7.031250E+00  0.000000E+00
  7.812500E-01  7.421875E+00  0.000000E+00
  7.812500E-01  7.812500E+00  0.000000E+00
  7.812500E-01  8.203125E+00  0.000000E+00
  7.812500E-01  8.593750E+00  0.000000E+00
  7.812500E-01  8.984375E+00  0.000000E+00
  7.812500E-01  9.375000E+00  0.000000E+00
  7.812500E-01  9.765625E+00  0.000000E+00
  7.812500E-01  1.015625E+01  0.000000E+00
  7.812500E-01  1.054688E+01  0.000000E+00
  7.812500E-01  1.093750E+01  0.000000E+00
  7.812500E-01  1.132812E+01  0.000000E+00
  7.812500E-01  1.171875E+01  0.000000E+00
  7.812500E-01  1.210938E+01  0.000000E+00
  7.812500E-01  1.250000E+01  0.000000E+00
  7.812500E-01  1.289062E+01  0.000000E+00
  7.812500E-01  1.328125E+01  0.000000E+00
  7.812500E-01  1.367188E+01  0.000000E+00
  7.812500E-01  1.406250E+01  0.000000E+00
  7.812500E-01  1.445312E+01  0.000000E+00
  7.812500E-01  1.484375E+01  0.000000E+00
  7.812500E-01  1.523438E+01  0.000000E+00
  7.812500E-01  1.562500E+01  0.000000E+00
  7.812500E-01  1.601562E+01  0.000000E+00
  7.812500E-01  1.640625E+01  0.000000E+00
  7.812500E-01  1.679688E+01  0.000000E+00
  7.812500E-01  1.718750E+01  0.000000E+00
  7.812500E-01  1.757812E+01  0.000000E+00
  7.812500E-01  1.796875E+01  0.000000E+00
  7.812500E-01  1.835938E+01  0.000000E+00
  7.812500E-01  1.875000E+01  0.000000E+00
  7.812500E-01  1.914062E+01  0.000000E+00
  7.812500E-01  1.953125E+01  0.000000E+00
  7.812500E-01  1.992188E+01  0.000000E+00
  7.812500E-01  2.031250E+01  0.000000E+00
  7.812500E-01  2.070312E+01  0.000000E+00
  7.812500E-01  2.109375E+01  0.000000E+00
  7.812500E-01  2.148438E+01  0.000000E+00
  7.812500E-01  2.187500E+01  0.000000E+00
  7.812500E-01  2.226562E+01  0.000000E+00
  7.812500E-01  2.265625E+01  0.000000E+00
  7.812500E-01  2.304688E+01  0.000000E+00
  7.812500E-01  2.343750E+01  0.000000E+00
  7.812500E-01  2.382812E+01  0.000000E+00
  7.812500E-01  2.421875E+01  0.000000E+00
  7.812500E-01  2.460938E+01  0.000000E+00
  1.171875E+00  0.000000E+00  0.000000E+00
  1.171875E+00  3.906250E-01  0.000000E+00
  1.171875E+00  7.812500E-01  0.000000E+00
  1.171875E+00  1.171875E+00  0.000000E+00
  1.171875E+00  1.562500E+00  0.000000E+00
  1.171875E+00  1.953125E+00  0.000000E+00
  1.171875E+00  2.343750E+00  0.000000E+00
  1.171875E+00  2.734375E+00  0.000000E+00
  1.171875E+00  3.125000E+00  0.000000E+00
  1.171875E+00  3.515625E+00  0.000000E+00
  1.171875E+00  3.906250E+00  0.000000E+00
  1.171875E+00  4.296875E+00  0.000000E+00
  1.171875E+00  4.687500E+00  0.000000E+00
  1.171875E+00  5.078125E+00  0.000000E+00
  1.171875E+00  5.468750E+00  0.000000E+00
  1.171875E+00  5.859375E+00  0.000000E+00
  1.171875E+00  6.250000E+00  0.000000E+00
  1.171875E+00  6.640625E+00  0.000000E+00
  1.171875E+00  7.031250E+00  0.000000E+00
  1.171875E+00  7.421875E+00  0.000000E+00
  1.171875E+00  7.812500E+00  0.000000E+00
  1.171875E+00  8.203125E+00  0.000000E+00
  1.171875E+00  8.593750E+00  0.000000E+00
  1.171875E+00  8.984375E+00  0.000000E+00
  1.171875E+00  9.375000E+00  0.000000E+00
  1.171875E+00  9.765625E+00  0.000000E+00
  1.171875E+00  1.015625E+01  0.000000E+00
  1.171875E+00  1.054688E+01  0.000000E+00
  1.171875E+00  1.093750E+01  0.000000E+00
  1.171875E+00  1.132812E+01  0.000000E+00
  1.171875E+00  1.171875E+01  0.000000E+00
  1.171875E+00  1.210938E+01  0.000000E+00
  1.171875E+00  1.250000E+01  0.000000E+00
  1.171875E+00  1.289062E+01  0.000000E+00
  1.171875E+00  1.328125E+01  0.000000E+00
  1.171875E+00  1.367188E+01  0.000000E+00
  1.171875E+00  1.406250E+01  0.000000E+00
  1.171875E+00  1.445312E+01  0.000000E+00
[...]
POINT_DATA   4096
SCALARS CON  float  1
LOOKUP_TABLE default
  4.679192E-01
  4.640019E-01
  4.680504E-01
  4.707162E-01
  4.712429E-01
  4.642997E-01
  4.598765E-01
  4.591842E-01
  4.719238E-01
  4.741033E-01
  4.708238E-01
  4.616936E-01
  4.657436E-01
  4.644864E-01
  4.645693E-01
  4.632235E-01
  4.641182E-01
  4.641858E-01
  4.697387E-01
  4.656255E-01
  4.666515E-01
  4.616323E-01
  4.628975E-01
  4.612956E-01
  4.580214E-01
  4.594324E-01
  4.645343E-01
  4.587787E-01
  4.627137E-01
  4.685093E-01
  4.739463E-01
  4.686835E-01
  4.632565E-01
  4.575000E-01
  4.672577E-01
  4.724668E-01
  4.691125E-01
  4.602267E-01
  4.643164E-01
  4.613922E-01
  4.582139E-01
  4.587033E-01
  4.687542E-01
  4.610710E-01
  4.591821E-01
  4.665366E-01
  4.692830E-01
  4.556516E-01
  4.565790E-01
  4.701452E-01
  4.772792E-01
  4.586608E-01
  4.576189E-01
  4.640923E-01
  4.655137E-01
  4.680939E-01
  4.802287E-01
  4.810054E-01
  4.788651E-01
  4.713864E-01
  4.760598E-01
  4.707829E-01
  4.699031E-01
  4.691550E-01
  4.674019E-01
  4.675144E-01
  4.715558E-01
  4.781208E-01
  4.832389E-01
  4.739409E-01
  4.617391E-01
  4.570048E-01
  4.724755E-01
  4.704679E-01
  4.642853E-01
  4.591054E-01
  4.643457E-01
  4.671669E-01
  4.699134E-01
  4.646365E-01
  4.634305E-01
  4.661064E-01
  4.762641E-01
  4.779755E-01
  4.748390E-01
  4.635941E-01
  4.572012E-01
  4.547814E-01
  4.621008E-01
  4.667141E-01
  4.702737E-01
  4.638899E-01
  4.643088E-01
  4.684866E-01
  4.716070E-01
  4.651221E-01
  4.611828E-01
  4.584848E-01
  4.682524E-01
  4.686561E-01
  4.639220E-01
  4.601040E-01
  4.653967E-01
  4.593050E-01
  4.582241E-01
  4.607408E-01
  4.617261E-01
  4.539017E-01
  4.525626E-01
  4.547178E-01
  4.630100E-01
  4.592677E-01
  4.646818E-01
  4.814556E-01
  4.860120E-01
  4.647755E-01
  4.620554E-01
  4.647111E-01
  4.629898E-01
  4.662609E-01
  4.747682E-01
  4.731391E-01
  4.730416E-01
  4.648112E-01
  4.632511E-01
  4.619002E-01
  4.693754E-01
  4.689150E-01
  4.605982E-01
  4.669933E-01
  4.712922E-01
  4.802553E-01
  4.787086E-01
  4.670665E-01
  4.650504E-01
  4.643107E-01
  4.695193E-01
  4.676120E-01
  4.633482E-01
  4.659186E-01
  4.701439E-01
  4.683767E-01
  4.727544E-01
  4.678525E-01
  4.646701E-01
  4.690215E-01
  4.714142E-01
  4.724177E-01
  4.722773E-01
  4.680933E-01
  4.632605E-01
  4.589926E-01
  4.629163E-01
  4.632861E-01
  4.632099E-01
  4.598182E-01
  4.621159E-01
  4.692379E-01
  4.667380E-01
  4.606406E-01
  4.604670E-01
  4.617441E-01
  4.687812E-01
  4.691055E-01
  4.655952E-01
  4.639481E-01
  4.682554E-01
  4.650444E-01
  4.608103E-01
  4.644677E-01
  4.607627E-01
  4.537482E-01
  4.547455E-01
  4.563977E-01
  4.662497E-01
  4.705665E-01
  4.754543E-01
  4.831518E-01
  4.802844E-01
  4.635410E-01
  4.616365E-01
  4.661024E-01
  4.657166E-01
  4.693761E-01
  4.729621E-01
  4.732868E-01
  4.749445E-01
  4.660801E-01
  4.573972E-01
  4.583190E-01
  4.636453E-01
  4.588541E-01
  4.578495E-01
  4.608289E-01
  4.734736E-01
  4.864068E-01
  4.698188E-01
  4.526290E-01
  4.582771E-01
  4.607749E-01
  4.624148E-01
  4.652598E-01
  4.665935E-01
  4.690995E-01
  4.730909E-01
  4.721993E-01
  4.668085E-01
  4.615018E-01
  4.637550E-01
  4.688797E-01
  4.669437E-01
  4.660525E-01
  4.652163E-01
  4.666473E-01
  4.663949E-01
  4.656677E-01
  4.700856E-01
  4.667233E-01
  4.609701E-01
  4.612174E-01
  4.598795E-01
  4.593917E-01
  4.618883E-01
  4.632951E-01
  4.634211E-01
  4.686187E-01
  4.677864E-01
  4.595615E-01
  4.612377E-01
  4.684040E-01
  4.641456E-01
  4.642293E-01
  4.713134E-01
  4.665477E-01
  4.548237E-01
  4.599903E-01
  4.641098E-01
  4.579824E-01
  4.646999E-01
  4.686134E-01
  4.688659E-01
  4.731268E-01
  4.685380E-01
  4.597881E-01
  4.581878E-01
  4.657795E-01
  4.751470E-01
  4.790823E-01
  4.792770E-01
  4.794065E-01
  4.774733E-01
  4.689114E-01
  4.561507E-01
  4.588355E-01
  4.653049E-01
  4.609255E-01
  4.600623E-01
  4.649738E-01
  4.714773E-01
  4.827543E-01
  4.655151E-01
  4.539875E-01
  4.633323E-01
  4.678439E-01
  4.625464E-01
  4.652132E-01
  4.683685E-01
  4.734905E-01
  4.700358E-01
  4.671783E-01
  4.652798E-01
  4.658175E-01
  4.677347E-01
  4.730448E-01
  4.699838E-01
  4.657807E-01
  4.619496E-01
  4.693080E-01
  4.717807E-01
  4.708943E-01
  4.696890E-01
  4.701793E-01
  4.641837E-01
  4.628821E-01
  4.604190E-01
  4.587776E-01
  4.593597E-01
  4.677933E-01
  4.645609E-01
  4.647494E-01
  4.653331E-01
  4.674230E-01
  4.669748E-01
  4.645355E-01
  4.551734E-01
  4.610439E-01
  4.705917E-01
  4.685041E-01
  4.579126E-01
  4.636788E-01
  4.668075E-01
  4.651495E-01
  4.654471E-01
  4.629197E-01
  4.568641E-01
  4.616982E-01
  4.642689E-01
  4.648672E-01
  4.608398E-01
  4.627713E-01
  4.684732E-01
  4.703672E-01
  4.655838E-01
  4.713954E-01
  4.727662E-01
  4.667813E-01
  4.567713E-01
  4.618548E-01
  4.578024E-01
  4.527063E-01
  4.660241E-01
  4.748191E-01
  4.636496E-01
  4.745077E-01
  4.670716E-01
  4.665814E-01
  4.603416E-01
  4.589258E-01
  4.535643E-01
  4.646456E-01
  4.616192E-01
  4.667259E-01
  4.636240E-01
  4.719829E-01
  4.653798E-01
  4.701812E-01
  4.650689E-01
  4.695178E-01
  4.689751E-01
  4.769384E-01
  4.654021E-01
  4.715737E-01
  4.660550E-01
  4.648125E-01
  4.569774E-01
  4.645203E-01
  4.617711E-01
  4.702604E-01
  4.627673E-01
  4.609297E-01
  4.597757E-01
  4.791963E-01
  4.709828E-01
  4.645926E-01
  4.560511E-01
  4.678930E-01
  4.630407E-01
  4.631589E-01
  4.570468E-01
  4.681239E-01
  4.710914E-01
  4.666983E-01
  4.470742E-01
  4.644258E-01
  4.748279E-01
  4.818691E-01
  4.739711E-01
  4.695746E-01
  4.525002E-01
  4.626235E-01
  4.677303E-01
  4.713757E-01
  4.571595E-01
  4.601427E-01
  4.630333E-01
  4.699364E-01
  4.597900E-01
  4.694775E-01
  4.628676E-01
  4.637082E-01
  4.609663E-01
  4.714277E-01
  4.580767E-01
  4.569068E-01
  4.694571E-01
  4.738181E-01
  4.629113E-01
  4.675132E-01
  4.652425E-01
  4.599285E-01
  4.561178E-01
  4.542786E-01
  4.516821E-01
  4.623066E-01
  4.638595E-01
  4.642937E-01
  4.647471E-01
  4.659377E-01
  4.625785E-01
  4.648411E-01
  4.591090E-01
  4.622195E-01
  4.679660E-01
  4.752871E-01
  4.679610E-01
  4.676714E-01
  4.659462E-01
  4.578089E-01
  4.449261E-01
  4.515531E-01
  4.583995E-01
  4.646885E-01
  4.638098E-01
  4.602253E-01
  4.567199E-01
  4.751413E-01
  4.760204E-01
  4.616921E-01
  4.535746E-01
  4.662474E-01
  4.695007E-01
  4.673115E-01
  4.672619E-01
  4.709021E-01
  4.648662E-01
  4.592797E-01
  4.511202E-01
  4.607164E-01
  4.689454E-01
  4.768428E-01
  4.761416E-01
  4.714095E-01
  4.550399E-01
  4.606204E-01
  4.696877E-01
  4.658560E-01
  4.583432E-01
  4.629994E-01
  4.614881E-01
  4.587267E-01
  4.548716E-01
  4.682148E-01
  4.638575E-01
  4.637680E-01
  4.703819E-01
  4.707362E-01
  4.606597E-01
  4.608577E-01
  4.683558E-01
  4.626082E-01
  4.641840E-01
  4.647200E-01
  4.657981E-01
  4.594815E-01
  4.665259E-01
  4.671740E-01
  4.649884E-01
  4.612535E-01
  4.680468E-01
  4.651546E-01
  4.706910E-01
  4.639834E-01
  4.577475E-01
  4.599011E-01
  4.664411E-01
  4.686466E-01
  4.748711E-01
  4.733268E-01
  4.706883E-01
  4.649218E-01
  4.724042E-01
  4.653715E-01
  4.552618E-01
  4.530663E-01
  4.587005E-01
  4.634219E-01
  4.741785E-01
  4.638886E-01
  4.628276E-01
  4.745721E-01
  4.812552E-01
  4.669827E-01
  4.607723E-01
  4.608284E-01
  4.728233E-01
  4.739060E-01
  4.687921E-01
  4.636267E-01
  4.728411E-01
  4.678249E-01
  4.615654E-01
  4.615026E-01
  4.715842E-01
  4.689198E-01
  4.722257E-01
  4.720549E-01
  4.621661E-01
  4.607480E-01
  4.680656E-01
  4.605023E-01
  4.633069E-01
  4.663324E-01
  4.694522E-01
  4.620425E-01
  4.605593E-01
  4.617395E-01
  4.588461E-01
  4.646032E-01
  4.817534E-01
  4.724055E-01
  4.732314E-01
  4.730006E-01
  4.536081E-01
  4.563912E-01
  4.606088E-01
  4.682179E-01
  4.670248E-01
  4.718521E-01
  4.772629E-01
  4.802238E-01
  4.662132E-01
  4.619877E-01
  4.655937E-01
  4.708308E-01
  4.680443E-01
  4.638909E-01
  4.607049E-01
  4.750554E-01
  4.793713E-01
  4.836413E-01
  4.788751E-01
  4.778813E-01
  4.696453E-01
  4.643271E-01
  4.696404E-01
  4.746848E-01
  4.609492E-01
  4.621385E-01
  4.595966E-01
  4.645431E-01
  4.730054E-01
  4.686353E-01
  4.595838E-01
  4.717017E-01
  4.726043E-01
  4.694089E-01
  4.670227E-01
  4.718510E-01
  4.730934E-01
  4.750758E-01
  4.654217E-01
  4.646860E-01
  4.662258E-01
  4.714602E-01
  4.654183E-01
  4.612278E-01
  4.642544E-01
  4.672611E-01
  4.655159E-01
  4.763138E-01
  4.679559E-01
  4.686974E-01
  4.673789E-01
  4.651442E-01
  4.632537E-01
  4.664221E-01
  4.638584E-01
  4.695230E-01
  4.675187E-01
  4.683209E-01
  4.575764E-01
  4.629015E-01
  4.675529E-01
  4.607585E-01
  4.591346E-01
  4.630610E-01
  4.590758E-01
  4.560612E-01
  4.627246E-01
  4.739375E-01
  4.688132E-01
  4.700259E-01
  4.668885E-01
  4.667457E-01
  4.662030E-01
  4.700650E-01
  4.705804E-01
  4.716495E-01
  4.671528E-01
  4.695195E-01
  4.659514E-01
  4.718668E-01
  4.682971E-01
  4.671267E-01
  4.676401E-01
  4.774472E-01
  4.689854E-01
  4.577667E-01
  4.587957E-01
  4.681157E-01
  4.660504E-01
  4.724688E-01
  4.690562E-01
  4.687696E-01
  4.676518E-01
  4.650096E-01
  4.657193E-01
  4.754384E-01
  4.722331E-01
  4.740112E-01
  4.686135E-01
  4.684131E-01
  4.686251E-01
  4.699730E-01
  4.612833E-01
  4.650338E-01
  4.659093E-01
  4.656293E-01
  4.623876E-01
  4.647882E-01
  4.643581E-01
  4.621429E-01
  4.570375E-01
  4.639020E-01
  4.593447E-01
  4.660640E-01
  4.719273E-01
  4.739944E-01
  4.638708E-01
  4.607818E-01
  4.633792E-01
  4.783734E-01
  4.772485E-01
  4.728869E-01
  4.606488E-01
  4.609373E-01
  4.567926E-01
  4.532097E-01
  4.588015E-01
  4.686175E-01
  4.621945E-01
  4.562243E-01
  4.645334E-01
  4.709737E-01
  4.670509E-01
  4.594614E-01
  4.610618E-01
  4.643988E-01
  4.709424E-01
  4.688225E-01
  4.696286E-01
  4.709911E-01
  4.666252E-01
  4.619721E-01
  4.667588E-01
  4.644037E-01
  4.581142E-01
  4.533003E-01
  4.598688E-01
  4.676311E-01
  4.678406E-01
  4.593441E-01
  4.616009E-01
  4.591178E-01
  4.595563E-01
  4.648275E-01
  4.694300E-01
  4.647040E-01
  4.666457E-01
  4.648065E-01
  4.609729E-01
  4.574785E-01
  4.620057E-01
  4.651371E-01
  4.642185E-01
  4.663044E-01
  4.759570E-01
  4.668728E-01
  4.587358E-01
  4.602501E-01
  4.560015E-01
  4.542628E-01
  4.703593E-01
  4.692130E-01
  4.623394E-01
  4.599949E-01
  4.568354E-01
  4.543549E-01
  4.599955E-01
  4.647304E-01
  4.732081E-01
  4.711172E-01
  4.683673E-01
  4.623908E-01
  4.630509E-01
  4.722283E-01
  4.743452E-01
  4.696336E-01
  4.679690E-01
  4.646899E-01
  4.661682E-01
  4.619639E-01
  4.622391E-01
  4.625939E-01
  4.610573E-01
  4.589156E-01
  4.610463E-01
  4.669475E-01
  4.659813E-01
  4.633156E-01
  4.670910E-01
  4.687626E-01
  4.676508E-01
  4.636226E-01
  4.602695E-01
  4.638308E-01
  4.673029E-01
  4.683376E-01
  4.627592E-01
  4.610389E-01
  4.619779E-01
  4.641937E-01
  4.715033E-01
  4.754339E-01
  4.705595E-01
  4.671562E-01
  4.666331E-01
  4.631306E-01
  4.634587E-01
  4.655506E-01
  4.715347E-01
  4.753528E-01
  4.725079E-01
  4.675426E-01
  4.626601E-01
  4.605162E-01
  4.617006E-01
  4.629049E-01
  4.595798E-01
  4.589572E-01
  4.661977E-01
  4.694567E-01
  4.655931E-01
  4.673289E-01
  4.605673E-01
  4.521524E-01
  4.647191E-01
  4.749263E-01
  4.724744E-01
  4.704813E-01
  4.632047E-01
  4.621611E-01
  4.703764E-01
  4.751132E-01
  4.707946E-01
  4.619408E-01
  4.626000E-01
  4.676389E-01
  4.679222E-01
  4.710336E-01
  4.702714E-01
  4.688100E-01
  4.648777E-01
  4.632936E-01
  4.731196E-01
  4.798678E-01
  4.708098E-01
  4.623280E-01
  4.639869E-01
  4.652179E-01
  4.551432E-01
  4.606683E-01
  4.623288E-01
  4.680688E-01
  4.777585E-01
  4.736968E-01
  4.592719E-01
  4.649453E-01
  4.647727E-01
  4.678050E-01
  4.680620E-01
  4.655450E-01
  4.588782E-01
  4.663663E-01
  4.702629E-01
  4.738160E-01
  4.758106E-01
  4.766443E-01
  4.696761E-01
  4.689074E-01
  4.650746E-01
  4.633461E-01
  4.581537E-01
  4.588899E-01
  4.685221E-01
  4.755077E-01
  4.697254E-01
  4.713452E-01
  4.650479E-01
  4.669589E-01
  4.659517E-01
  4.634733E-01
  4.641361E-01
  4.673424E-01
  4.641568E-01
  4.670552E-01
  4.640121E-01
  4.664655E-01
  4.577297E-01
  4.544175E-01
  4.610289E-01
  4.662048E-01
  4.627334E-01
  4.708967E-01
  4.699300E-01
  4.709976E-01
  4.725901E-01
  4.740339E-01
  4.665787E-01
  4.591398E-01
  4.566605E-01
  4.636201E-01
  4.601256E-01
  4.610265E-01
  4.637392E-01
  4.726130E-01
  4.692443E-01
  4.642149E-01
  4.653934E-01
  4.724044E-01
  4.585775E-01
  4.544407E-01
  4.698767E-01
  4.696516E-01
  4.633794E-01
  4.716948E-01
  4.688146E-01
  4.652482E-01
  4.669383E-01
  4.598444E-01
  4.500013E-01
  4.625732E-01
  4.680689E-01
  4.671441E-01
  4.666194E-01
  4.640243E-01
  4.569214E-01
  4.654346E-01
  4.710746E-01
  4.706912E-01
  4.705464E-01
  4.733472E-01
  4.693397E-01
  4.672772E-01
  4.625710E-01
  4.627223E-01
  4.576770E-01
  4.551439E-01
  4.631420E-01
  4.688682E-01
  4.626925E-01
  4.654314E-01
  4.627909E-01
  4.668019E-01
  4.716775E-01
  4.693667E-01
  4.662093E-01
  4.654911E-01
  4.615817E-01
  4.648379E-01
  4.607158E-01
  4.648265E-01
  4.691072E-01
  4.677617E-01
  4.623386E-01
  4.602831E-01
  4.552890E-01
  4.632381E-01
  4.691671E-01
  4.660034E-01
  4.620624E-01
  4.653161E-01
  4.619756E-01
  4.620971E-01
  4.600466E-01
  4.603944E-01
  4.588337E-01
  4.614067E-01
  4.643532E-01
  4.676107E-01
  4.681667E-01
  4.715403E-01
  4.670770E-01
  4.681902E-01
  4.595995E-01
  4.597941E-01
  4.658356E-01
  4.654528E-01
  4.639865E-01
  4.714607E-01
  4.692206E-01
  4.648155E-01
  4.639179E-01
  4.648755E-01
  4.608261E-01
  4.658672E-01
  4.652189E-01
  4.625142E-01
  4.624243E-01
  4.616953E-01
  4.612598E-01
  4.621400E-01
  4.626948E-01
  4.644695E-01
  4.609497E-01
  4.619942E-01
  4.662608E-01
  4.677204E-01
  4.654937E-01
  4.671586E-01
  4.631461E-01
  4.609377E-01
  4.593750E-01
  4.580081E-01
  4.604945E-01
  4.667252E-01
  4.606007E-01
  4.619333E-01
  4.702686E-01
  4.677292E-01
  4.631202E-01
  4.667859E-01
  4.667702E-01
  4.648896E-01
  4.611003E-01
  4.653592E-01
  4.662811E-01
  4.683390E-01
  4.710454E-01
  4.675044E-01
  4.570526E-01
  4.601999E-01
  4.670987E-01
  4.612860E-01
  4.574919E-01
  4.626770E-01
  4.568209E-01
  4.581156E-01
  4.668445E-01
  4.704022E-01
  4.671423E-01
  4.662774E-01
  4.654853E-01
  4.649186E-01
  4.677317E-01
  4.722462E-01
  4.632774E-01
  4.603408E-01
  4.575995E-01
  4.588680E-01
  4.687917E-01
  4.629726E-01
  4.594225E-01
  4.581300E-01
  4.616232E-01
  4.673179E-01
  4.682236E-01
  4.665939E-01
  4.707684E-01
  4.648238E-01
  4.578238E-01
  4.545454E-01
  4.629594E-01
  4.669335E-01
  4.672561E-01
  4.629240E-01
  4.669186E-01
  4.645316E-01
  4.605015E-01
  4.647126E-01
  4.744716E-01
  4.726264E-01
  4.673997E-01
  4.639616E-01
  4.699677E-01
  4.673244E-01
  4.541781E-01
  4.518444E-01
  4.672511E-01
  4.701652E-01
  4.678572E-01
  4.645801E-01
  4.684752E-01
  4.643381E-01
  4.571464E-01
  4.575119E-01
  4.667060E-01
  4.664402E-01
  4.600685E-01
  4.625285E-01
  4.723700E-01
  4.663872E-01
  4.663346E-01
  4.685905E-01
  4.665387E-01
  4.641151E-01
  4.709479E-01
  4.627573E-01
  4.584569E-01
  4.627892E-01
  4.598216E-01
  4.565875E-01
  4.652015E-01
  4.704280E-01
  4.757273E-01
  4.727397E-01
  4.685450E-01
  4.605575E-01
  4.607376E-01
  4.629480E-01
  4.589877E-01
  4.573425E-01
  4.650443E-01
  4.665380E-01
  4.764887E-01
  4.740940E-01
  4.665236E-01
  4.607674E-01
  4.608586E-01
  4.633771E-01
  4.680338E-01
  4.682901E-01
  4.722083E-01
  4.634444E-01
  4.599585E-01
  4.659769E-01
  4.666030E-01
  4.574690E-01
  4.655768E-01
  4.740276E-01
  4.811695E-01
  4.717619E-01
  4.634733E-01
  4.678057E-01
  4.757691E-01
  4.757454E-01
  4.701537E-01
  4.563164E-01
  4.592127E-01
  4.640390E-01
  4.562451E-01
  4.515195E-01
  4.658255E-01
  4.646806E-01
  4.550834E-01
  4.511348E-01
  4.606929E-01
  4.660795E-01
  4.662484E-01
  4.665729E-01
  4.724675E-01
  4.655339E-01
  4.572905E-01
  4.601487E-01
  4.675423E-01
  4.604847E-01
  4.627954E-01
  4.608964E-01
  4.611479E-01
  4.668992E-01
  4.702253E-01
  4.611914E-01
  4.598441E-01
  4.624255E-01
  4.654154E-01
  4.608270E-01
  4.650434E-01
  4.683501E-01
  4.696811E-01
  4.666087E-01
  4.657589E-01
  4.584097E-01
  4.548239E-01
  4.541459E-01
  4.549334E-01
  4.574324E-01
  4.688899E-01
  4.703938E-01
  4.770936E-01
  4.740398E-01
  4.696068E-01
  4.672430E-01
  4.684685E-01
  4.634355E-01
  4.599156E-01
  4.569752E-01
  4.660294E-01
  4.639913E-01
  4.620656E-01
  4.675150E-01
  4.644385E-01
  4.554757E-01
  4.602032E-01
  4.676533E-01
  4.769314E-01
  4.727228E-01
  4.661088E-01
  4.661412E-01
  4.659789E-01
  4.660195E-01
  4.636606E-01
  4.552417E-01
  4.581934E-01
  4.636183E-01
  4.643624E-01
  4.637459E-01
  4.710273E-01
  4.663240E-01
  4.565518E-01
  4.553133E-01
  4.677556E-01
  4.767984E-01
  4.770258E-01
  4.706453E-01
  4.699270E-01
  4.655885E-01
  4.595383E-01
  4.627870E-01
  4.691127E-01
  4.579975E-01
  4.594619E-01
  4.649304E-01
  4.694774E-01
  4.734658E-01
  4.665949E-01
  4.533316E-01
  4.530156E-01
  4.607069E-01
  4.707841E-01
  4.681271E-01
  4.654146E-01
  4.656415E-01
  4.693838E-01
  4.657491E-01
  4.617950E-01
  4.594807E-01
  4.604081E-01
  4.609802E-01
  4.595730E-01
  4.607246E-01
  4.764609E-01
  4.806379E-01
  4.696676E-01
  4.688750E-01
  4.638773E-01
  4.618537E-01
  4.645862E-01
  4.651450E-01
  4.596538E-01
  4.549426E-01
  4.590534E-01
  4.658939E-01
  4.632400E-01
  4.661950E-01
  4.598813E-01
  4.560021E-01
  4.582568E-01
  4.606235E-01
  4.630287E-01
  4.669606E-01
  4.612868E-01
  4.597340E-01
  4.590115E-01
  4.648294E-01
  4.633172E-01
  4.617348E-01
  4.584314E-01
  4.594794E-01
  4.590985E-01
  4.608865E-01
  4.689464E-01
  4.731316E-01
  4.611799E-01
  4.620399E-01
  4.681336E-01
  4.693704E-01
  4.694783E-01
  4.698150E-01
  4.636731E-01
  4.616093E-01
  4.615818E-01
  4.658737E-01
  4.610600E-01
  4.585555E-01
  4.643344E-01
  4.695563E-01
  4.694594E-01
  4.748410E-01
  4.663125E-01
  4.591272E-01
  4.560634E-01
  4.604082E-01
  4.678516E-01
  4.689649E-01
  4.636484E-01
  4.648494E-01
  4.684763E-01
  4.630226E-01
  4.525530E-01
  4.641927E-01
  4.725481E-01
  4.715534E-01
  4.650813E-01
  4.625389E-01
  4.670630E-01
  4.747598E-01
  4.708236E-01
  4.684389E-01
  4.659393E-01
  4.615448E-01
  4.665353E-01
  4.673795E-01
  4.627858E-01
  4.577490E-01
  4.647029E-01
  4.675600E-01
  4.645350E-01
  4.604258E-01
  4.613198E-01
  4.627401E-01
  4.600302E-01
  4.562286E-01
  4.572504E-01
  4.586507E-01
  4.633193E-01
  4.635745E-01
  4.585242E-01
  4.638816E-01
  4.715992E-01
  4.711884E-01
  4.727904E-01
  4.697766E-01
  4.657327E-01
  4.623357E-01
  4.656007E-01
  4.662220E-01
  4.680678E-01
  4.723426E-01
  4.746982E-01
  4.703145E-01
  4.699443E-01
  4.617372E-01
  4.539312E-01
  4.593520E-01
  4.663110E-01
  4.660341E-01
  4.702169E-01
  4.667896E-01
  4.624113E-01
  4.669746E-01
  4.728934E-01
  4.686863E-01
  4.616638E-01
  4.615180E-01
  4.617430E-01
  4.569526E-01
  4.607175E-01
  4.627947E-01
  4.609280E-01
  4.619936E-01
  4.720003E-01
  4.656793E-01
  4.602172E-01
  4.676775E-01
  4.703491E-01
  4.693812E-01
  4.710838E-01
  4.674959E-01
  4.656334E-01
  4.699966E-01
  4.650391E-01
  4.643802E-01
  4.696349E-01
  4.621197E-01
  4.663606E-01
  4.622986E-01
  4.686849E-01
  4.648035E-01
  4.629520E-01
  4.517296E-01
  4.570857E-01
  4.583543E-01
  4.656255E-01
  4.598324E-01
  4.680312E-01
  4.649237E-01
  4.622460E-01
  4.562691E-01
  4.652678E-01
  4.589879E-01
  4.542871E-01
  4.571967E-01
  4.756223E-01
  4.689572E-01
  4.711912E-01
  4.657762E-01
  4.671116E-01
  4.615259E-01
  4.695763E-01
  4.641799E-01
  4.645644E-01
  4.609647E-01
  4.682826E-01
  4.636327E-01
  4.703640E-01
  4.616798E-01
  4.626034E-01
  4.640008E-01
  4.691823E-01
  4.569705E-01
  4.639187E-01
  4.648532E-01
  4.656388E-01
  4.593222E-01
  4.658040E-01
  4.586488E-01
  4.580514E-01
  4.587139E-01
  4.659934E-01