# vtk DataFile Version 2.0
title
ASCII
DATASET STRUCTURED_GRID
DIMENSIONS   64   64    1
POINTS   4096  float
  0.000000E+00  0.000000E+00  0.000000E+00
  0.000000E+00  3.906250E-01  0.000000E+00
  0.000000E+00  7.812500E-01  0.000000E+00
  0.000000E+00  1.171875E+00  0.000000E+00
  0.000000E+00  1.562500E+00  0.000000E+00
  0.000000E+00  1.953125E+00  0.000000E+00
  0.000000E+00  2.343750E+00  0.000000E+00
  0.000000E+00  2.734375E+00  0.000000E+00
  0.000000E+00  3.125000E+00  0.000000E+00
  0.000000E+00  3.515625E+00  0.000000E+00
  0.000000E+00  3.906250E+00  0.000000E+00
  0.000000E+00  4.296875E+00  0.000000E+00
  0.000000E+00  4.687500E+00  0.000000E+00
  0.000000E+00  5.078125E+00  0.000000E+00
  0.000000E+00  5.468750E+00  0.000000E+00
  0.000000E+00  5.859375E+00  0.000000E+00
  0.000000E+00  6.250000E+00  0.000000E+00
  0.000000E+00  6.640625E+00  0.000000E+00
  0.000000E+00  7.031250E+00  0.000000E+00
  0.000000E+00  7.421875E+00  0.000000E+00
  0.000000E+00  7.812500E+00  0.000000E+00
  0.000000E+00  8.203125E+00  0.000000E+00
  0.000000E+00  8.593750E+00  0.000000E+00
  0.000000E+00  8.984375E+00  0.000000E+00
  0.000000E+00  9.375000E+00  0.000000E+00
  0.000000E+00  9.765625E+00  0.000000E+00
  0.000000E+00  1.015625E+01  0.000000E+00
  0.000000E+00  1.054688E+01  0.000000E+00
  0.000000E+00  1.093750E+01  0.000000E+00
  0.000000E+00  1.132812E+01  0.000000E+00
  0.000000E+00  1.171875E+01  0.000000E+00
  0.000000E+00  1.210938E+01  0.000000E+00
  0.000000E+00  1.250000E+01  0.000000E+00
  0.000000E+00  1.289062E+01  0.000000E+00
  0.000000E+00  1.328125E+01  0.000000E+00
  0.000000E+00  1.367188E+01  0.000000E+00
  0.000000E+00  1.406250E+01  0.000000E+00
  0.000000E+00  1.445312E+01  0.000000E+00
  0.000000E+00  1.484375E+01  0.000000E+00
  0.000000E+00  1.523438E+01  0.000000E+00
  0.000000E+00  1.562500E+01  0.000000E+00
  0.000000E+00  1.601562E+01  0.000000E+00
  0.000000E+00  1.640625E+01  0.000000E+00
  0.000000E+00  1.679688E+01  0.000000E+00
  0.000000E+00  1.718750E+01  0.000000E+00
  0.000000E+00  1.757812E+01  0.000000E+00
  0.000000E+00  1.796875E+01  0.000000E+00
  0.000000E+00  1.835938E+01  0.000000E+00
  0.000000E+00  1.875000E+01  0.000000E+00
  0.000000E+00  1.914062E+01  0.000000E+00
  0.000000E+00  1.953125E+01  0.000000E+00
  0.000000E+00  1.992188E+01  0.000000E+00
  0.000000E+00  2.031250E+01  0.000000E+00
  0.000000E+00  2.070312E+01  0.000000E+00
  0.000000E+00  2.109375E+01  0.000000E+00
  0.000000E+00  2.148438E+01  0.000000E+00
  0.000000E+00  2.187500E+01  0.000000E+00
  0.000000E+00  2.226562E+01  0.000000E+00
  0.000000E+00  2.265625E+01  0.000000E+00
  0.000000E+00  2.304688E+01  0.000000E+00
  0.000000E+00  2.343750E+01  0.000000E+00
  0.000000E+00  2.382812E+01  0.000000E+00
  0.000000E+00  2.421875E+01  0.000000E+00
  0.000000E+00  2.460938E+01  0.000000E+00
  3.906250E-01  0.000000E+00  0.000000E+00
  3.906250E-01  3.906250E-01  0.000000E+00
  3.906250E-01  7.812500E-01  0.000000E+00
  3.906250E-01  1.171875E+00  0.000000E+00
  3.906250E-01  1.562500E+00  0.000000E+00
  3.906250E-01  1.953125E+00  0.000000E+00
  3.906250E-01  2.343750E+00  0.000000E+00
  3.906250E-01  2.734375E+00  0.000000E+00
  3.906250E-01  3.125000E+00  0.000000E+00
  3.906250E-01  3.515625E+00  0.000000E+00
  3.906250E-01  3.906250E+00  0.000000E+00
  3.906250E-01  4.296875E+00  0.000000E+00
  3.906250E-01  4.687500E+00  0.000000E+00
  3.906250E-01  5.078125E+00  0.000000E+00
  3.906250E-01  5.468750E+00  0.000000E+00
  3.906250E-01  5.859375E+00  0.000000E+00
  3.906250E-01  6.250000E+00  0.000000E+00
  3.906250E-01  6.640625E+00  0.000000E+00
  3.906250E-01  7.031250E+00  0.000000E+00
  3.906250E-01  7.421875E+00  0.000000E+00
  3.906250E-01  7.812500E+00  0.000000E+00
  3.906250E-01  8.203125E+00  0.000000E+00
  3.906250E-01  8.593750E+00  0.000000E+00
  3.906250E-01  8.984375E+00  0.000000E+00
  3.906250E-01  9.375000E+00  0.000000E+00
  3.906250E-01  9.765625E+00  0.000000E+00
  3.906250E-01  1.015625E+01  0.000000E+00
  3.906250E-01  1.054688E+01  0.000000E+00
  3.906250E-01  1.093750E+01  0.000000E+00
  3.906250E-01  1.132812E+01  0.000000E+00
  3.906250E-01  1.171875E+01  0.000000E+00
  3.906250E-01  1.210938E+01  0.000000E+00
  3.906250E-01  1.250000E+01  0.000000E+00
  3.906250E-01  1.289062E+01  0.000000E+00
  3.906250E-01  1.328125E+01  0.000000E+00
  3.906250E-01  1.367188E+01  0.000000E+00
  3.906250E-01  1.406250E+01  0.000000E+00
  3.906250E-01  1.445312E+01  0.000000E+00
  3.906250E-01  1.484375E+01  0.000000E+00
  3.906250E-01  1.523438E+01  0.000000E+00
  3.906250E-01  1.562500E+01  0.000000E+00
  3.906250E-01  1.601562E+01  0.000000E+00
  3.906250E-01  1.640625E+01  0.000000E+00
  3.906250E-01  1.679688E+01  0.000000E+00
  3.906250E-01  1.718750E+01  0.000000E+00
  3.906250E-01  1.757812E+01  0.000000E+00
  3.906250E-01  1.796875E+01  0.000000E+00
  3.906250E-01  1.835938E+01  0.000000E+00
  3.906250E-01  1.875000E+01  0.000000E+00
  3.906250E-01  1.914062E+01  0.000000E+00
  3.906250E-01  1.953125E+01  0.000000E+00
  3.906250E-01  1.992188E+01  0.000000E+00
  3.906250E-01  2.031250E+01  0.000000E+00
  3.906250E-01  2.070312E+01  0.000000E+00
  3.906250E-01  2.109375E+01  0.000000E+00
  3.906250E-01  2.148438E+01  0.000000E+00
  3.906250E-01  2.187500E+01  0.000000E+00
  3.906250E-01  2.226562E+01  0.000000E+00
  3.906250E-01  2.265625E+01  0.000000E+00
  3.906250E-01  2.304688E+01  0.000000E+00
  3.906250E-01  2.343750E+01  0.000000E+00
  3.906250E-01  2.382812E+01  0.000000E+00
  3.906250E-01  2.421875E+01  0.000000E+00
  3.906250E-01  2.460938E+01  0.000000E+00
  7.812500E-01  0.000000E+00  0.000000E+00
  7.812500E-01  3.906250E-01  0.000000E+00
  7.812500E-01  7.812500E-01  0.000000E+00
  7.812500E-01  1.171875E+00  0.000000E+00
  7.812500E-01  1.562500E+00  0.000000E+00
  7.812500E-01  1.953125E+00  0.000000E+00
  7.812500E-01  2.343750E+00  0.000000E+00
  7.812500E-01  2.734375E+00  0.000000E+00
  7.812500E-01  3.125000E+00  0.000000E+00
  7.812500E-01  3.515625E+00  0.000000E+00
  7.812500E-01  3.906250E+00  0.000000E+00
  7.812500E-01  4.296875E+00  0.000000E+00
  7.812500E-01  4.687500E+00  0.000000E+00
  7.812500E-01  5.078125E+00  0.000000E+00
  7.812500E-01  5.468750E+00  0.000000E+00
  7.812500E-01  5.859375E+00  0.000000E+00
  7.812500E-01  6.250000E+00  0.000000E+00
  7.812500E-01  6.640625E+00  0.000000E+00
  7.812500E-01  7.031250E+00  0.000000E+00
  7.812500E-01  7.421875E+00  0.000000E+00
  7.812500E-01  7.812500E+00  0.000000E+00
  7.812500E-01  8.203125E+00  0.000000E+00
  7.812500E-01  8.593750E+00  0.000000E+00
  7.812500E-01  8.984375E+00  0.000000E+00
  7.812500E-01  9.375000E+00  0.000000E+00
  7.812500E-01  9.765625E+00  0.000000E+00
  7.812500E-01  1.015625E+01  0.000000E+00
  7.812500E-01  1.054688E+01  0.000000E+00
  7.812500E-01  1.093750E+01  0.000000E+00
  7.812500E-01  1.132812E+01  0.000000E+00
  7.812500E-01  1.171875E+01  0.000000E+00
  7.812500E-01  1.210938E+01  0.000000E+00
  7.812500E-01  1.250000E+01  0.000000E+00
  7.812500E-01  1.289062E+01  0.000000E+00
  7.812500E-01  1.328125E+01  0.000000E+00
  7.812500E-01  1.367188E+01  0.000000E+00
  7.812500E-01  1.406250E+01  0.000000E+00
  7.812500E-01  1.445312E+01  0.000000E+00
  7.812500E-01  1.484375E+01  0.000000E+00
  7.812500E-01  1.523438E+01  0.000000E+00
  7.812500E-01  1.562500E+01  0.000000E+00
  7.812500E-01  1.601562E+01  0.000000E+00
  7.812500E-01  1.640625E+01  0.000000E+00
  7.812500E-01  1.679688E+01  0.000000E+00
  7.812500E-01  1.718750E+01  0.000000E+00
  7.812500E-01  1.757812E+01  0.000000E+00
  7.812500E-01  1.796875E+01  0.000000E+00
  7.812500E-01  1.835938E+01  0.000000E+00
  7.812500E-01  1.875000E+01  0.000000E+00
  7.812500E-01  1.914062E+01  0.000000E+00
  7.812500E-01  1.953125E+01  0.000000E+00
  7.812500E-01  1.992188E+01  0.000000E+00
  7.812500E-01  2.031250E+01  0.000000E+00
  7.812500E-01  2.070312E+01  0.000000E+00
  7.812500E-01  2.109375E+01  0.000000E+00
  7.812500E-01  2.148438E+01  0.000000E+00
  7.812500E-01  2.187500E+01  0.000000E+00
  7.812500E-01  2.226562E+01  0.000000E+00
  7.812500E-01  2.265625E+01  0.000000E+00
  7.812500E-01  2.304688E+01  0.000000E+00
  7.812500E-01  2.343750E+01  0.000000E+00
  7.812500E-01  2.382812E+01  0.000000E+00
  7.812500E-01  2.421875E+01  0.000000E+00
  7.812500E-01  2.460938E+01  0.000000E+00
  1.171875E+00  0.000000E+00  0.000000E+00
  1.171875E+00  3.906250E-01  0.000000E+00
  1.171875E+00  7.812500E-01  0.000000E+00
  1.171875E+00  1.171875E+00  0.000000E+00
  1.171875E+00  1.562500E+00  0.000000E+00
  1.171875E+00  1.953125E+00  0.000000E+00
  1.171875E+00  2.343750E+00  0.000000E+00
  1.171875E+00  2.734375E+00  0.000000E+00
  1.171875E+00  3.125000E+00  0.000000E+00
  1.171875E+00  3.515625E+00  0.000000E+00
  1.171875E+00  3.906250E+00  0.000000E+00
  1.171875E+00  4.296875E+00  0.000000E+00
  1.171875E+00  4.687500E+00  0.000000E+00
  1.171875E+00  5.078125E+00  0.000000E+00
  1.171875E+00  5.468750E+00  0.000000E+00
  1.171875E+00  5.859375E+00  0.000000E+00
  1.171875E+00  6.250000E+00  0.000000E+00
  1.171875E+00  6.640625E+00  0.000000E+00
  1.171875E+00  7.031250E+00  0.000000E+00
  1.171875E+00  7.421875E+00  0.000000E+00
  1.171875E+00  7.812500E+00  0.000000E+00
  1.171875E+00  8.203125E+00  0.000000E+00
  1.171875E+00  8.593750E+00  0.000000E+00
  1.171875E+00  8.984375E+00  0.000000E+00
  1.171875E+00  9.375000E+00  0.000000E+00
  1.171875E+00  9.765625E+00  0.000000E+00
  1.171875E+00  1.015625E+01  0.000000E+00
  1.171875E+00  1.054688E+01  0.000000E+00
  1.171875E+00  1.093750E+01  0.000000E+00
  1.171875E+00  1.132812E+01  0.000000E+00
  1.171875E+00  1.171875E+01  0.000000E+00
  1.171875E+00  1.210938E+01  0.000000E+00
  1.171875E+00  1.250000E+01  0.000000E+00
  1.171875E+00  1.289062E+01  0.000000E+00
  1.171875E+00  1.328125E+01  0.000000E+00
  1.171875E+00  1.367188E+01  0.000000E+00
  1.171875E+00  1.406250E+01  0.000000E+00
  1.171875E+00  1.445312E+01  0.000000E+00
[...]
POINT_DATA   4096
SCALARS CON  float  1
LOOKUP_TABLE default
  3.297368E-01
  3.296165E-01
  3.336420E-01
  3.315031E-01
  3.329108E-01
  3.290787E-01
  3.305150E-01
  3.280916E-01
  3.310346E-01
  3.290989E-01
  3.312961E-01
  3.280651E-01
  3.294683E-01
  3.266116E-01
  3.293843E-01
  3.281642E-01
  3.319663E-01
  3.305782E-01
  3.331230E-01
  3.299287E-01
  3.308668E-01
  3.267516E-01
  3.274369E-01
  3.236222E-01
  3.250014E-01
  3.223616E-01
  3.253053E-01
  3.242299E-01
  3.280954E-01
  3.267571E-01
  3.293881E-01
  3.266412E-01
  3.286470E-01
  3.263779E-01
  3.293743E-01
  3.276463E-01
  3.301478E-01
  3.270880E-01
  3.282048E-01
  3.244163E-01
  3.255864E-01
  3.223619E-01
  3.241926E-01
  3.216615E-01
  3.244116E-01
  3.232960E-01
  3.278794E-01
  3.283104E-01
  3.331841E-01
  3.318087E-01
  3.332550E-01
  3.284666E-01
  3.284838E-01
  3.253118E-01
  3.291658E-01
  3.300416E-01
  3.359437E-01
  3.354987E-01
  3.374425E-01
  3.324599E-01
  3.314819E-01
  3.263140E-01
  3.274118E-01
  3.255225E-01
  3.315924E-01
  3.322265E-01
  3.354853E-01
  3.338734E-01
  3.338291E-01
  3.295630E-01
  3.288956E-01
  3.262365E-01
  3.282335E-01
  3.277905E-01
  3.305582E-01
  3.293734E-01
  3.306833E-01
  3.283433E-01
  3.294765E-01
  3.280052E-01
  3.304828E-01
  3.299441E-01
  3.322678E-01
  3.304026E-01
  3.309099E-01
  3.276896E-01
  3.278433E-01
  3.252160E-01
  3.263653E-01
  3.247282E-01
  3.267371E-01
  3.259134E-01
  3.286664E-01
  3.282092E-01
  3.306459E-01
  3.291114E-01
  3.301091E-01
  3.273901E-01
  3.279177E-01
  3.255449E-01
  3.269034E-01
  3.253303E-01
  3.269871E-01
  3.250381E-01
  3.258528E-01
  3.231119E-01
  3.236759E-01
  3.215250E-01
  3.234540E-01
  3.231840E-01
  3.270725E-01
  3.281554E-01
  3.320726E-01
  3.313553E-01
  3.322517E-01
  3.288781E-01
  3.291945E-01
  3.279489E-01
  3.319590E-01
  3.337867E-01
  3.383021E-01
  3.374370E-01
  3.375297E-01
  3.328728E-01
  3.314711E-01
  3.278105E-01
  3.288471E-01
  3.280549E-01
  3.268730E-01
  3.303046E-01
  3.337860E-01
  3.343251E-01
  3.333695E-01
  3.302855E-01
  3.282548E-01
  3.267113E-01
  3.274581E-01
  3.282560E-01
  3.298721E-01
  3.300223E-01
  3.302411E-01
  3.292465E-01
  3.292279E-01
  3.289178E-01
  3.299622E-01
  3.303677E-01
  3.312890E-01
  3.307081E-01
  3.302169E-01
  3.283930E-01
  3.272249E-01
  3.253791E-01
  3.247096E-01
  3.237315E-01
  3.241332E-01
  3.241979E-01
  3.253030E-01
  3.254915E-01
  3.262043E-01
  3.258621E-01
  3.263645E-01
  3.262969E-01
  3.272719E-01
  3.273544E-01
  3.278160E-01
  3.268227E-01
  3.260814E-01
  3.241958E-01
  3.230825E-01
  3.213778E-01
  3.209644E-01
  3.204750E-01
  3.217385E-01
  3.232001E-01
  3.262670E-01
  3.287261E-01
  3.313443E-01
  3.316747E-01
  3.311763E-01
  3.288841E-01
  3.277596E-01
  3.273936E-01
  3.298755E-01
  3.328850E-01
  3.364791E-01
  3.372975E-01
  3.362176E-01
  3.321059E-01
  3.280916E-01
  3.241249E-01
  3.229914E-01
  3.234939E-01
  3.282171E-01
  3.321963E-01
  3.336920E-01
  3.348632E-01
  3.319150E-01
  3.292144E-01
  3.249936E-01
  3.240384E-01
  3.234776E-01
  3.262058E-01
  3.277627E-01
  3.304089E-01
  3.301057E-01
  3.303960E-01
  3.285873E-01
  3.289370E-01
  3.285127E-01
  3.305373E-01
  3.308971E-01
  3.322425E-01
  3.308164E-01
  3.303116E-01
  3.278965E-01
  3.274563E-01
  3.257390E-01
  3.260432E-01
  3.249074E-01
  3.257783E-01
  3.253990E-01
  3.271132E-01
  3.272182E-01
  3.286291E-01
  3.276096E-01
  3.276179E-01
  3.257062E-01
  3.258336E-01
  3.249265E-01
  3.262207E-01
  3.258080E-01
  3.265481E-01
  3.248887E-01
  3.245578E-01
  3.228011E-01
  3.235200E-01
  3.235172E-01
  3.259596E-01
  3.270251E-01
  3.295795E-01
  3.297046E-01
  3.304880E-01
  3.286260E-01
  3.281950E-01
  3.267782E-01
  3.285073E-01
  3.299730E-01
  3.336602E-01
  3.347566E-01
  3.356418E-01
  3.328094E-01
  3.305902E-01
  3.267748E-01
  3.256918E-01
  3.244360E-01
  3.264903E-01
  3.241913E-01
  3.297194E-01
  3.306417E-01
  3.333653E-01
  3.298385E-01
  3.287927E-01
  3.240666E-01
  3.245514E-01
  3.229809E-01
  3.265166E-01
  3.265938E-01
  3.299920E-01
  3.285646E-01
  3.302168E-01
  3.278377E-01
  3.297605E-01
  3.285435E-01
  3.316669E-01
  3.308261E-01
  3.331562E-01
  3.305769E-01
  3.309637E-01
  3.269949E-01
  3.268788E-01
  3.233154E-01
  3.241749E-01
  3.218746E-01
  3.239679E-01
  3.226517E-01
  3.253348E-01
  3.241644E-01
  3.266919E-01
  3.252572E-01
  3.276400E-01
  3.262201E-01
  3.286215E-01
  3.269610E-01
  3.287142E-01
  3.260731E-01
  3.268201E-01
  3.235802E-01
  3.244713E-01
  3.222649E-01
  3.247921E-01
  3.242893E-01
  3.280034E-01
  3.277348E-01
  3.307316E-01
  3.289914E-01
  3.301990E-01
  3.268701E-01
  3.272476E-01
  3.243602E-01
  3.264616E-01
  3.260357E-01
  3.302454E-01
  3.303600E-01
  3.330496E-01
  3.300260E-01
  3.293361E-01
  3.241946E-01
  3.234485E-01
  3.204474E-01
  3.233048E-01
  3.267928E-01
  3.310959E-01
  3.301640E-01
  3.325109E-01
  3.282794E-01
  3.275820E-01
  3.222874E-01
  3.229967E-01
  3.209410E-01
  3.251339E-01
  3.252879E-01
  3.296700E-01
  3.281504E-01
  3.302404E-01
  3.272250E-01
  3.294590E-01
  3.280351E-01
  3.321651E-01
  3.315291E-01
  3.346492E-01
  3.315260E-01
  3.319683E-01
  3.272519E-01
  3.275633E-01
  3.238456E-01
  3.254680E-01
  3.229629E-01
  3.256631E-01
  3.242795E-01
  3.281037E-01
  3.273580E-01
  3.308362E-01
  3.286033E-01
  3.301337E-01
  3.265594E-01
  3.280864E-01
  3.257343E-01
  3.287281E-01
  3.270034E-01
  3.293993E-01
  3.264180E-01
  3.279901E-01
  3.254029E-01
  3.283935E-01
  3.273232E-01
  3.309503E-01
  3.291970E-01
  3.312737E-01
  3.278606E-01
  3.287843E-01
  3.250203E-01
  3.263872E-01
  3.238576E-01
  3.269447E-01
  3.260330E-01
  3.298903E-01
  3.283887E-01
  3.306087E-01
  3.272619E-01
  3.283289E-01
  3.248953E-01
  3.266582E-01
  3.243867E-01
  3.275579E-01
  3.237183E-01
  3.279573E-01
  3.274968E-01
  3.304382E-01
  3.274622E-01
  3.280207E-01
  3.240755E-01
  3.253990E-01
  3.234306E-01
  3.268135E-01
  3.259986E-01
  3.292584E-01
  3.273179E-01
  3.293800E-01
  3.270630E-01
  3.298941E-01
  3.290542E-01
  3.331254E-01
  3.323114E-01
  3.348913E-01
  3.314563E-01
  3.313369E-01
  3.261975E-01
  3.257927E-01
  3.217543E-01
  3.232108E-01
  3.212223E-01
  3.243949E-01
  3.235129E-01
  3.271688E-01
  3.261981E-01
  3.294175E-01
  3.278418E-01
  3.305731E-01
  3.287546E-01
  3.313934E-01
  3.293186E-01
  3.312639E-01
  3.280939E-01
  3.289687E-01
  3.253848E-01
  3.268781E-01
  3.248910E-01
  3.282942E-01
  3.276484E-01
  3.312188E-01
  3.294739E-01
  3.313052E-01
  3.279518E-01
  3.287949E-01
  3.251785E-01
  3.262759E-01
  3.233560E-01
  3.254956E-01
  3.238273E-01
  3.270768E-01
  3.259085E-01
  3.288132E-01
  3.265045E-01
  3.279099E-01
  3.243286E-01
  3.251896E-01
  3.221601E-01
  3.246048E-01
  3.264253E-01
  3.285459E-01
  3.276116E-01
  3.296703E-01
  3.276468E-01
  3.281238E-01
  3.250632E-01
  3.257899E-01
  3.242717E-01
  3.269957E-01
  3.268287E-01
  3.295622E-01
  3.281443E-01
  3.293283E-01
  3.272355E-01
  3.292389E-01
  3.290977E-01
  3.329626E-01
  3.331651E-01
  3.352792E-01
  3.322387E-01
  3.312143E-01
  3.266412E-01
  3.260744E-01
  3.234098E-01
  3.250841E-01
  3.242314E-01
  3.270757E-01
  3.269371E-01
  3.302672E-01
  3.302152E-01
  3.329263E-01
  3.314134E-01
  3.323456E-01
  3.296186E-01
  3.304989E-01
  3.287020E-01
  3.305948E-01
  3.290204E-01
  3.302009E-01
  3.276836E-01
  3.286238E-01
  3.270027E-01
  3.294685E-01
  3.289778E-01
  3.314118E-01
  3.297067E-01
  3.305220E-01
  3.276565E-01
  3.281371E-01
  3.256456E-01
  3.268583E-01
  3.252658E-01
  3.273672E-01
  3.263852E-01
  3.285190E-01
  3.269348E-01
  3.282537E-01
  3.262271E-01
  3.277419E-01
  3.262563E-01
  3.280914E-01
  3.264614E-01
  3.279889E-01
  3.227987E-01
  3.248854E-01
  3.254002E-01
  3.280642E-01
  3.280759E-01
  3.295650E-01
  3.284145E-01
  3.293286E-01
  3.283046E-01
  3.296652E-01
  3.288442E-01
  3.298384E-01
  3.282556E-01
  3.287273E-01
  3.275054E-01
  3.293342E-01
  3.298961E-01
  3.329383E-01
  3.332232E-01
  3.343088E-01
  3.316068E-01
  3.299472E-01
  3.259168E-01
  3.247356E-01
  3.226822E-01
  3.240779E-01
  3.242678E-01
  3.269128E-01
  3.271908E-01
  3.291582E-01
  3.285758E-01
  3.300057E-01
  3.293733E-01
  3.311257E-01
  3.308549E-01
  3.325864E-01
  3.315691E-01
  3.318427E-01
  3.291357E-01
  3.282413E-01
  3.255227E-01
  3.258295E-01
  3.250396E-01
  3.271572E-01
  3.273425E-01
  3.293779E-01
  3.287118E-01
  3.297399E-01
  3.283590E-01
  3.290271E-01
  3.274558E-01
  3.279629E-01
  3.263661E-01
  3.271626E-01
  3.261983E-01
  3.277275E-01
  3.272308E-01
  3.287218E-01
  3.276493E-01
  3.281954E-01
  3.260785E-01
  3.258006E-01
  3.234450E-01
  3.237537E-01
  3.249471E-01
  3.255904E-01
  3.258002E-01
  3.278903E-01
  3.285065E-01
  3.298204E-01
  3.290858E-01
  3.294197E-01
  3.286288E-01
  3.296131E-01
  3.294140E-01
  3.302367E-01
  3.290685E-01
  3.288136E-01
  3.274332E-01
  3.283269E-01
  3.290527E-01
  3.318126E-01
  3.328318E-01
  3.337982E-01
  3.316661E-01
  3.297834E-01
  3.266050E-01
  3.258430E-01
  3.252083E-01
  3.270794E-01
  3.280861E-01
  3.302543E-01
  3.305684E-01
  3.317720E-01
  3.313142E-01
  3.319601E-01
  3.309590E-01
  3.310587E-01
  3.297615E-01
  3.300179E-01
  3.291630E-01
  3.296677E-01
  3.285133E-01
  3.283195E-01
  3.266670E-01
  3.267035E-01
  3.260514E-01
  3.273196E-01
  3.274412E-01
  3.287087E-01
  3.282812E-01
  3.289761E-01
  3.282689E-01
  3.289091E-01
  3.281612E-01
  3.287649E-01
  3.281960E-01
  3.292888E-01
  3.292445E-01
  3.304149E-01
  3.297754E-01
  3.300155E-01
  3.287290E-01
  3.289293E-01
  3.279367E-01
  3.281818E-01
  3.267338E-01
  3.263911E-01
  3.213855E-01
  3.228480E-01
  3.239629E-01
  3.268942E-01
  3.283736E-01
  3.305762E-01
  3.306403E-01
  3.314128E-01
  3.305239E-01
  3.308747E-01
  3.297732E-01
  3.297739E-01
  3.281931E-01
  3.279905E-01
  3.269690E-01
  3.281630E-01
  3.288775E-01
  3.312721E-01
  3.318537E-01
  3.325986E-01
  3.305996E-01
  3.289991E-01
  3.260034E-01
  3.251851E-01
  3.244100E-01
  3.262555E-01
  3.274218E-01
  3.296731E-01
  3.296440E-01
  3.299104E-01
  3.282615E-01
  3.280982E-01
  3.272954E-01
  3.286404E-01
  3.291026E-01
  3.306986E-01
  3.301145E-01
  3.297781E-01
  3.272909E-01
  3.259990E-01
  3.239281E-01
  3.241091E-01
  3.238281E-01
  3.253758E-01
  3.257035E-01
  3.272607E-01
  3.273755E-01
  3.287668E-01
  3.286967E-01
  3.296487E-01
  3.287949E-01
  3.289044E-01
  3.276586E-01
  3.281568E-01
  3.279516E-01
  3.295836E-01
  3.299502E-01
  3.312291E-01
  3.303678E-01
  3.299481E-01
  3.274460E-01
  3.259102E-01
  3.231749E-01
  3.224182E-01
  3.243460E-01
  3.249688E-01
  3.250463E-01
  3.272986E-01
  3.280673E-01
  3.297638E-01
  3.291343E-01
  3.294985E-01
  3.283192E-01
  3.289538E-01
  3.282822E-01
  3.289728E-01
  3.277098E-01
  3.276405E-01
  3.262581E-01
  3.271887E-01
  3.276635E-01
  3.303328E-01
  3.312639E-01
  3.325769E-01
  3.308514E-01
  3.296087E-01
  3.268250E-01
  3.265061E-01
  3.260639E-01
  3.282446E-01
  3.292745E-01
  3.313799E-01
  3.310807E-01
  3.314960E-01
  3.299527E-01
  3.298457E-01
  3.283024E-01
  3.283948E-01
  3.271287E-01
  3.275714E-01
  3.266571E-01
  3.272678E-01
  3.262204E-01
  3.265257E-01
  3.253395E-01
  3.259253E-01
  3.253985E-01
  3.266845E-01
  3.265427E-01
  3.278164E-01
  3.274468E-01
  3.285026E-01
  3.279299E-01
  3.286607E-01
  3.276408E-01
  3.281124E-01
  3.274235E-01
  3.288615E-01
  3.292818E-01
  3.312340E-01
  3.311419E-01
  3.318276E-01
  3.304195E-01
  3.303109E-01
  3.286477E-01
  3.284168E-01
  3.264893E-01
  3.260060E-01
  3.221535E-01
  3.237526E-01
  3.242635E-01
  3.268409E-01
  3.275916E-01
  3.296310E-01
  3.292419E-01
  3.299907E-01
  3.286072E-01
  3.288487E-01
  3.273254E-01
  3.275456E-01
  3.260519E-01
  3.265265E-01
  3.257622E-01
  3.274419E-01
  3.280029E-01
  3.305557E-01
  3.309912E-01
  3.322523E-01
  3.305284E-01
  3.295534E-01
  3.264634E-01
  3.255969E-01
  3.241091E-01
  3.256141E-01
  3.261602E-01
  3.283815E-01
  3.280174E-01
  3.283653E-01
  3.263544E-01
  3.262492E-01
  3.251564E-01
  3.266710E-01
  3.268869E-01
  3.286149E-01
  3.277962E-01
  3.278210E-01
  3.255621E-01
  3.251297E-01
  3.235417E-01
  3.244414E-01
  3.241741E-01
  3.258851E-01
  3.258149E-01
  3.273474E-01
  3.269959E-01
  3.282512E-01
  3.275164E-01
  3.281784E-01
  3.267498E-01
  3.269644E-01
  3.257106E-01
  3.268107E-01
  3.268561E-01
  3.290967E-01
  3.295360E-01
  3.311497E-01
  3.300577E-01
  3.297475E-01
  3.270023E-01
  3.258307E-01
  3.232551E-01
  3.231324E-01
  3.266813E-01
  3.272101E-01
  3.265895E-01
  3.277166E-01
  3.274719E-01
  3.283881E-01
  3.274061E-01
  3.275349E-01
  3.262160E-01
  3.265826E-01
  3.257757E-01
  3.264818E-01
  3.256643E-01
  3.262473E-01
  3.256568E-01
  3.271058E-01
  3.278474E-01
  3.304705E-01
  3.314312E-01
  3.328928E-01
  3.315474E-01
  3.304933E-01
  3.275474E-01
  3.264562E-01
  3.249308E-01
  3.259037E-01
  3.261177E-01
  3.278547E-01
  3.277992E-01
  3.287177E-01
  3.278715E-01
  3.283182E-01
  3.272410E-01
  3.274992E-01
  3.262471E-01
  3.264863E-01
  3.254896E-01
  3.261764E-01
  3.255958E-01
  3.265015E-01
  3.259858E-01
  3.269715E-01
  3.266399E-01
  3.278032E-01
  3.274193E-01
  3.281996E-01
  3.272120E-01
  3.274089E-01
  3.260502E-01
  3.261658E-01
  3.250706E-01
  3.258465E-01
  3.257737E-01
  3.276431E-01
  3.282166E-01
  3.298540E-01
  3.292989E-01
  3.294626E-01
  3.278511E-01
  3.278401E-01
  3.268177E-01
  3.275849E-01
  3.269798E-01
  3.276359E-01
  3.258730E-01
  3.269483E-01
  3.268855E-01
  3.275838E-01
  3.274288E-01
  3.281678E-01
  3.278801E-01
  3.281644E-01
  3.272160E-01
  3.268963E-01
  3.256384E-01
  3.254238E-01
  3.247231E-01
  3.254656E-01
  3.259548E-01
  3.278213E-01
  3.290319E-01
  3.310101E-01
  3.316595E-01
  3.324508E-01
  3.313670E-01
  3.301317E-01
  3.272645E-01
  3.251709E-01
  3.228492E-01
  3.225392E-01
  3.224574E-01
  3.238135E-01
  3.241815E-01
  3.249409E-01
  3.244848E-01
  3.250430E-01
  3.252465E-01
  3.268173E-01
  3.275519E-01
  3.286371E-01
  3.279892E-01
  3.274981E-01
  3.258827E-01
  3.254373E-01
  3.247304E-01
  3.255171E-01
  3.257946E-01
  3.269678E-01
  3.269832E-01
  3.274505E-01
  3.266276E-01
  3.264228E-01
  3.252962E-01
  3.252249E-01
  3.246197E-01
  3.252867E-01
  3.253949E-01
  3.265148E-01
  3.266810E-01
  3.274838E-01
  3.270616E-01
  3.271333E-01
  3.259742E-01
  3.255149E-01
  3.243109E-01
  3.244422E-01
  3.242985E-01
  3.254759E-01
  3.313033E-01
  3.308251E-01
  3.297657E-01
  3.285057E-01
  3.275964E-01
  3.268933E-01
  3.264447E-01
  3.259394E-01
  3.255525E-01
  3.251561E-01
  3.249920E-01
  3.248989E-01
  3.250985E-01
  3.254751E-01
  3.262962E-01
  3.273968E-01
  3.288703E-01
  3.302953E-01
  3.315198E-01
  3.319831E-01
  3.315997E-01
  3.301543E-01
  3.281406E-01
  3.259273E-01
  3.242791E-01
  3.233542E-01
  3.233480E-01
  3.238354E-01
  3.247157E-01
  3.256249E-01
  3.266736E-01
  3.275737E-01
  3.283018E-01
  3.284331E-01
  3.280879E-01
  3.272868E-01
  3.266058E-01
  3.261716E-01
  3.262492E-01
  3.265247E-01
  3.270301E-01
  3.275030E-01
  3.280832E-01
  3.284366E-01
  3.284867E-01
  3.278169E-01
  3.266358E-01
  3.250937E-01
  3.238994E-01
  3.233363E-01
  3.238167E-01
  3.250499E-01
  3.268009E-01
  3.282541E-01
  3.289871E-01
  3.284859E-01
  3.270914E-01
  3.252197E-01
  3.238641E-01
  3.234975E-01
  3.245366E-01
  3.264959E-01
  3.288461E-01
  3.305706E-01
  3.304096E-01
  3.300881E-01
  3.297898E-01
  3.280135E-01
  3.275129E-01
  3.265108E-01
  3.269751E-01
  3.264530E-01
  3.267014E-01
  3.255455E-01
  3.252591E-01
  3.241278E-01
  3.245912E-01
  3.247381E-01
  3.265097E-01
  3.274299E-01
  3.291595E-01
  3.293861E-01
  3.302533E-01
  3.297761E-01
  3.299985E-01
  3.285844E-01
  3.274892E-01
  3.248518E-01
  3.233604E-01
  3.215612E-01
  3.217873E-01
  3.217426E-01
  3.230240E-01
  3.232376E-01
  3.245131E-01
  3.250494E-01
  3.270605E-01
  3.281790E-01
  3.299104E-01
  3.296242E-01
  3.293145E-01
  3.272801E-01
  3.262772E-01
  3.248024E-01
  3.252027E-01
  3.252941E-01
  3.267806E-01
  3.270699E-01
  3.278091E-01
  3.267007E-01
  3.259887E-01
  3.240469E-01
  3.235384E-01
  3.228348E-01
  3.241114E-01
  3.249926E-01
  3.269635E-01
  3.273337E-01
  3.278832E-01
  3.266125E-01
  3.259869E-01
  3.243101E-01
  3.239482E-01
  3.230477E-01
  3.239123E-01
  3.246072E-01
  3.270382E-01
  3.285288E-01
  3.346098E-01
  3.325127E-01
  3.316233E-01
  3.282371E-01
  3.274513E-01
  3.250540E-01
  3.254037E-01
  3.238628E-01
  3.247026E-01
  3.234379E-01
  3.245207E-01
  3.235865E-01
  3.251049E-01
  3.246353E-01
  3.265046E-01
  3.261204E-01
  3.278080E-01
  3.271040E-01
  3.285346E-01
  3.276860E-01
  3.289280E-01
  3.276199E-01
  3.281038E-01
  3.260212E-01
  3.261225E-01
  3.242951E-01
  3.251467E-01
  3.242515E-01
  3.259663E-01
  3.258192E-01
  3.281933E-01
  3.284395E-01
  3.306047E-01
  3.297748E-01
  3.302434E-01
  3.277989E-01
  3.274895E-01
  3.253887E-01
  3.261648E-01
  3.253023E-01
  3.270470E-01
  3.267955E-01
  3.287955E-01
  3.282624E-01
  3.292397E-01
  3.270146E-01
  3.262381E-01
  3.230948E-01
  3.228012E-01
  3.215130E-01
  3.237394E-01
  3.246785E-01
  3.280202E-01
  3.285238E-01
  3.301104E-01
  3.282401E-01
  3.277921E-01
  3.250234E-01
  3.251271E-01
  3.242026E-01
  3.268174E-01
  3.281985E-01
  3.320321E-01
  3.329090E-01
  3.314569E-01
  3.296901E-01
  3.301846E-01
  3.270597E-01
  3.272478E-01
  3.248086E-01
  3.260058E-01
  3.242677E-01
  3.255738E-01
  3.235508E-01
  3.246276E-01
  3.228399E-01
  3.246982E-01
  3.239350E-01
  3.265137E-01
  3.256752E-01
  3.273904E-01
  3.254383E-01
  3.265589E-01
  3.249122E-01
  3.268687E-01
  3.257765E-01
  3.274443E-01
  3.253814E-01
  3.261681E-01
  3.240021E-01
  3.254677E-01
  3.242011E-01
  3.262002E-01
  3.250283E-01
  3.271228E-01
  3.264389E-01
  3.292990E-01
  3.289861E-01
  3.312223E-01
  3.292290E-01
  3.294008E-01
  3.259382E-01
  3.258647E-01
  3.234694E-01
  3.252420E-01
  3.247191E-01
  3.276661E-01
  3.271125E-01
  3.288226E-01
  3.263004E-01
  3.261947E-01
  3.228867E-01
  3.233612E-01
  3.217824E-01
  3.243528E-01
  3.243614E-01
  3.274398E-01
  3.268146E-01
  3.287131E-01
  3.270834E-01
  3.285801E-01
  3.270033E-01
  3.285672E-01
  3.268822E-01
  3.284215E-01
  3.271895E-01
  3.296398E-01
  3.291524E-01
  3.332091E-01
  3.303652E-01
  3.307495E-01
  3.271214E-01
  3.273686E-01
  3.241386E-01
  3.249928E-01
  3.224152E-01
  3.238943E-01
  3.219600E-01
  3.241033E-01
  3.228000E-01
  3.254154E-01
  3.242491E-01
  3.265678E-01
  3.246960E-01
  3.261990E-01
  3.238239E-01
  3.254464E-01
  3.238119E-01
  3.264058E-01
  3.254628E-01
  3.281809E-01
  3.268455E-01
  3.290281E-01
  3.273165E-01
  3.293507E-01
  3.276186E-01
  3.297297E-01
  3.282577E-01
  3.308245E-01
  3.296912E-01
  3.319847E-01
  3.296697E-01
  3.302316E-01
  3.264948E-01
  3.267016E-01
  3.238667E-01
  3.256700E-01
  3.244584E-01
  3.274755E-01
  3.269619E-01
  3.301432E-01
  3.290244E-01
  3.307241E-01
  3.275044E-01
  3.272886E-01
  3.232853E-01
  3.237731E-01
  3.216972E-01
  3.244826E-01
  3.242434E-01
  3.279403E-01
  3.276175E-01
  3.306098E-01
  3.293568E-01
  3.315441E-01
  3.297305E-01
  3.316308E-01
  3.298002E-01
  3.319614E-01
  3.305735E-01
  3.330699E-01
  3.315308E-01
  3.284261E-01
  3.270985E-01
  3.286996E-01
  3.265927E-01
  3.275513E-01
  3.253159E-01
  3.265167E-01
  3.245478E-01
  3.257819E-01
  3.236864E-01
  3.249137E-01
  3.232018E-01
  3.251926E-01
  3.242843E-01
  3.266274E-01
  3.252720E-01
  3.265408E-01
  3.241324E-01
  3.250992E-01
  3.234234E-01
  3.256918E-01
  3.250442E-01
  3.274975E-01
  3.262739E-01
  3.280471E-01
  3.265783E-01
  3.285314E-01
  3.271962E-01
  3.288775E-01
  3.270092E-01
  3.284183E-01
  3.268879E-01
  3.290181E-01
  3.279344E-01
  3.297100E-01
  3.274764E-01
  3.278694E-01
  3.247960E-01
  3.253594E-01
  3.235197E-01
  3.259279E-01
  3.258383E-01
  3.291950E-01
  3.287422E-01
  3.305272E-01
  3.279297E-01
  3.279726E-01
  3.248006E-01
  3.254965E-01