# vtk DataFile Version 2.0
title
ASCII
DATASET STRUCTURED_GRID
DIMENSIONS   64   64    1
POINTS   4096  float
  0.000000E+00  0.000000E+00  0.000000E+00
  0.000000E+00  3.906250E-01  0.000000E+00
  0.000000E+00  7.812500E-01  0.000000E+00
  0.000000E+00  1.171875E+00  0.000000E+00
  0.000000E+00  1.562500E+00  0.000000E+00
  0.000000E+00  1.953125E+00  0.000000E+00
  0.000000E+00  2.343750E+00  0.000000E+00
  0.000000E+00  2.734375E+00  0.000000E+00
  0.000000E+00  3.125000E+00  0.000000E+00
  0.000000E+00  3.515625E+00  0.000000E+00
  0.000000E+00  3.906250E+00  0.000000E+00
  0.000000E+00  4.296875E+00  0.000000E+00
  0.000000E+00  4.687500E+00  0.000000E+00
  0.000000E+00  5.078125E+00  0.000000E+00
  0.000000E+00  5.468750E+00  0.000000E+00
  0.000000E+00  5.859375E+00  0.000000E+00
  0.000000E+00  6.250000E+00  0.000000E+00
  0.000000E+00  6.640625E+00  0.000000E+00
  0.000000E+00  7.031250E+00  0.000000E+00
  0.000000E+00  7.421875E+00  0.000000E+00
  0.000000E+00  7.812500E+00  0.000000E+00
  0.000000E+00  8.203125E+00  0.000000E+00
  0.000000E+00  8.593750E+00  0.000000E+00
  0.000000E+00  8.984375E+00  0.000000E+00
  0.000000E+00  9.375000E+00  0.000000E+00
  0.000000E+00  9.765625E+00  0.000000E+00
  0.000000E+00  1.015625E+01  0.000000E+00
  0.000000E+00  1.054688E+01  0.000000E+00
  0.000000E+00  1.093750E+01  0.000000E+00
  0.000000E+00  1.132812E+01  0.000000E+00
  0.000000E+00  1.171875E+01  0.000000E+00
  0.000000E+00  1.210938E+01  0.000000E+00
  0.000000E+00  1.250000E+01  0.000000E+00
  0.000000E+00  1.289062E+01  0.000000E+00
  0.000000E+00  1.328125E+01  0.000000E+00
  0.000000E+00  1.367188E+01  0.000000E+00
  0.000000E+00  1.406250E+01  0.000000E+00
  0.000000E+00  1.445312E+01  0.000000E+00
  0.000000E+00  1.484375E+01  0.000000E+00
  0.000000E+00  1.523438E+01  0.000000E+00
  0.000000E+00  1.562500E+01  0.000000E+00
  0.000000E+00  1.601562E+01  0.000000E+00
  0.000000E+00  1.640625E+01  0.000000E+00
  0.000000E+00  1.679688E+01  0.000000E+00
  0.000000E+00  1.718750E+01  0.000000E+00
  0.000000E+00  1.757812E+01  0.000000E+00
  0.000000E+00  1.796875E+01  0.000000E+00
  0.000000E+00  1.835938E+01  0.000000E+00
  0.000000E+00  1.875000E+01  0.000000E+00
  0.000000E+00  1.914062E+01  0.000000E+00
  0.000000E+00  1.953125E+01  0.000000E+00
  0.000000E+00  1.992188E+01  0.000000E+00
  0.000000E+00  2.031250E+01  0.000000E+00
  0.000000E+00  2.070312E+01  0.000000E+00
  0.000000E+00  2.109375E+01  0.000000E+00
  0.000000E+00  2.148438E+01  0.000000E+00
  0.000000E+00  2.187500E+01  0.000000E+00
  0.000000E+00  2.226562E+01  0.000000E+00
  0.000000E+00  2.265625E+01  0.000000E+00
  0.000000E+00  2.304688E+01  0.000000E+00
  0.000000E+00  2.343750E+01  0.000000E+00
  0.000000E+00  2.382812E+01  0.000000E+00
  0.000000E+00  2.421875E+01  0.000000E+00
  0.000000E+00  2.460938E+01  0.000000E+00
  3.906250E-01  0.000000E+00  0.000000E+00
  3.906250E-01  3.906250E-01  0.000000E+00
  3.906250E-01  7.812500E-01  0.000000E+00
  3.906250E-01  1.171875E+00  0.000000E+00
  3.906250E-01  1.562500E+00  0.000000E+00
  3.906250E-01  1.953125E+00  0.000000E+00
  3.906250E-01  2.343750E+00  0.000000E+00
  3.906250E-01  2.734375E+00  0.000000E+00
  3.906250E-01  3.125000E+00  0.000000E+00
  3.906250E-01  3.515625E+00  0.000000E+00
  3.906250E-01  3.906250E+00  0.000000E+00
  3.906250E-01  4.296875E+00  0.000000E+00
  3.906250E-01  4.687500E+00  0.000000E+00
  3.906250E-01  5.078125E+00  0.000000E+00
  3.906250E-01  5.468750E+00  0.000000E+00
  3.906250E-01  5.859375E+00  0.000000E+00
  3.906250E-01  6.250000E+00  0.000000E+00
  3.906250E-01  6.640625E+00  0.000000E+00
  3.906250E-01  7.031250E+00  0.000000E+00
  3.906250E-01  7.421875E+00  0.000000E+00
  3.906250E-01  7.812500E+00  0.000000E+00
  3.906250E-01  8.203125E+00  0.000000E+00
  3.906250E-01  8.593750E+00  0.000000E+00
  3.906250E-01  8.984375E+00  0.000000E+00
  3.906250E-01  9.375000E+00  0.000000E+00
  3.906250E-01  9.765625E+00  0.000000E+00
  3.906250E-01  1.015625E+01  0.000000E+00
  3.906250E-01  1.054688E+01  0.000000E+00
  3.906250E-01  1.093750E+01  0.000000E+00
  3.906250E-01  1.132812E+01  0.000000E+00
  3.906250E-01  1.171875E+01  0.000000E+00
  3.906250E-01  1.210938E+01  0.000000E+00
  3.906250E-01  1.250000E+01  0.000000E+00
  3.906250E-01  1.289062E+01  0.000000E+00
  3.906250E-01  1.328125E+01  0.000000E+00
  3.906250E-01  1.367188E+01  0.000000E+00
  3.906250E-01  1.406250E+01  0.000000E+00
  3.906250E-01  1.445312E+01  0.000000E+00
  3.906250E-01  1.484375E+01  0.000000E+00
  3.906250E-01  1.523438E+01  0.000000E+00
  3.906250E-01  1.562500E+01  0.000000E+00
  3.906250E-01  1.601562E+01  0.000000E+00
  3.906250E-01  1.640625E+01  0.000000E+00
  3.906250E-01  1.679688E+01  0.000000E+00
  3.906250E-01  1.718750E+01  0.000000E+00
  3.906250E-01  1.757812E+01  0.000000E+00
  3.906250E-01  1.796875E+01  0.000000E+00
  3.906250E-01  1.835938E+01  0.000000E+00
  3.906250E-01  1.875000E+01  0.000000E+00
  3.906250E-01  1.914062E+01  0.000000E+00
  3.906250E-01  1.953125E+01  0.000000E+00
  3.906250E-01  1.992188E+01  0.000000E+00
  3.906250E-01  2.031250E+01  0.000000E+00
  3.906250E-01  2.070312E+01  0.000000E+00
  3.906250E-01  2.109375E+01  0.000000E+00
  3.906250E-01  2.148438E+01  0.000000E+00
  3.906250E-01  2.187500E+01  0.000000E+00
  3.906250E-01  2.226562E+01  0.000000E+00
  3.906250E-01  2.265625E+01  0.000000E+00
  3.906250E-01  2.304688E+01  0.000000E+00
  3.906250E-01  2.343750E+01  0.000000E+00
  3.906250E-01  2.382812E+01  0.000000E+00
  3.906250E-01  2.421875E+01  0.000000E+00
  3.906250E-01  2.460938E+01  0.000000E+00
  7.812500E-01  0.000000E+00  0.000000E+00
  7.812500E-01  3.906250E-01  0.000000E+00
  7.812500E-01  7.812500E-01  0.000000E+00
  7.812500E-01  1.171875E+00  0.000000E+00
  7.812500E-01  1.562500E+00  0.000000E+00
  7.812500E-01  1.953125E+00  0.000000E+00
  7.812500E-01  2.343750E+00  0.000000E+00
  7.812500E-01  2.734375E+00  0.000000E+00
  7.812500E-01  3.125000E+00  0.000000E+00
  7.812500E-01  3.515625E+00  0.000000E+00
  7.812500E-01  3.906250E+00  0.000000E+00
  7.812500E-01  4.296875E+00  0.000000E+00
  7.812500E-01  4.687500E+00  0.000000E+00
  7.812500E-01  5.078125E+00  0.000000E+00
  7.812500E-01  5.468750E+00  0.000000E+00
  7.812500E-01  5.859375E+00  0.000000E+00
  7.812500E-01  6.250000E+00  0.000000E+00
  7.812500E-01  6.640625E+00  0.000000E+00
  7.812500E-01  7.031250E+00  0.000000E+00
  7.812500E-01  7.421875E+00  0.000000E+00
  7.812500E-01  7.812500E+00  0.000000E+00
  7.812500E-01  8.203125E+00  0.000000E+00
  7.812500E-01  8.593750E+00  0.000000E+00
  7.812500E-01  8.984375E+00  0.000000E+00
  7.812500E-01  9.375000E+00  0.000000E+00
  7.812500E-01  9.765625E+00  0.000000E+00
  7.812500E-01  1.015625E+01  0.000000E+00
  7.812500E-01  1.054688E+01  0.000000E+00
  7.812500E-01  1.093750E+01  0.000000E+00
  7.812500E-01  1.132812E+01  0.000000E+00
  7.812500E-01  1.171875E+01  0.000000E+00
  7.812500E-01  1.210938E+01  0.000000E+00
  7.812500E-01  1.250000E+01  0.000000E+00
  7.812500E-01  1.289062E+01  0.000000E+00
  7.812500E-01  1.328125E+01  0.000000E+00
  7.812500E-01  1.367188E+01  0.000000E+00
  7.812500E-01  1.406250E+01  0.000000E+00
  7.812500E-01  1.445312E+01  0.000000E+00
  7.812500E-01  1.484375E+01  0.000000E+00
  7.812500E-01  1.523438E+01  0.000000E+00
  7.812500E-01  1.562500E+01  0.000000E+00
  7.812500E-01  1.601562E+01  0.000000E+00
  7.812500E-01  1.640625E+01  0.000000E+00
  7.812500E-01  1.679688E+01  0.000000E+00
  7.812500E-01  1.718750E+01  0.000000E+00
  7.812500E-01  1.757812E+01  0.000000E+00
  7.812500E-01  1.796875E+01  0.000000E+00
  7.812500E-01  1.835938E+01  0.000000E+00
  7.812500E-01  1.875000E+01  0.000000E+00
  7.812500E-01  1.914062E+01  0.000000E+00
  7.812500E-01  1.953125E+01  0.000000E+00
  7.812500E-01  1.992188E+01  0.000000E+00
  7.812500E-01  2.031250E+01  0.000000E+00
  7.812500E-01  2.070312E+01  0.000000E+00
  7.812500E-01  2.109375E+01  0.000000E+00
  7.812500E-01  2.148438E+01  0.000000E+00
  7.812500E-01  2.187500E+01  0.000000E+00
  7.812500E-01  2.226562E+01  0.000000E+00
  7.812500E-01  2.265625E+01  0.000000E+00
  7.812500E-01  2.304688E+01  0.000000E+00
  7.812500E-01  2.343750E+01  0.000000E+00
  7.812500E-01  2.382812E+01  0.000000E+00
  7.812500E-01  2.421875E+01  0.000000E+00
  7.812500E-01  2.460938E+01  0.000000E+00
  1.171875E+00  0.000000E+00  0.000000E+00
  1.171875E+00  3.906250E-01  0.000000E+00
  1.171875E+00  7.812500E-01  0.000000E+00
  1.171875E+00  1.171875E+00  0.000000E+00
  1.171875E+00  1.562500E+00  0.000000E+00
  1.171875E+00  1.953125E+00  0.000000E+00
  1.171875E+00  2.343750E+00  0.000000E+00
  1.171875E+00  2.734375E+00  0.000000E+00
  1.171875E+00  3.125000E+00  0.000000E+00
  1.171875E+00  3.515625E+00  0.000000E+00
  1.171875E+00  3.906250E+00  0.000000E+00
  1.171875E+00  4.296875E+00  0.000000E+00
  1.171875E+00  4.687500E+00  0.000000E+00
  1.171875E+00  5.078125E+00  0.000000E+00
  1.171875E+00  5.468750E+00  0.000000E+00
  1.171875E+00  5.859375E+00  0.000000E+00
  1.171875E+00  6.250000E+00  0.000000E+00
  1.171875E+00  6.640625E+00  0.000000E+00
  1.171875E+00  7.031250E+00  0.000000E+00
  1.171875E+00  7.421875E+00  0.000000E+00
  1.171875E+00  7.812500E+00  0.000000E+00
  1.171875E+00  8.203125E+00  0.000000E+00
  1.171875E+00  8.593750E+00  0.000000E+00
  1.171875E+00  8.984375E+00  0.000000E+00
  1.171875E+00  9.375000E+00  0.000000E+00
  1.171875E+00  9.765625E+00  0.000000E+00
  1.171875E+00  1.015625E+01  0.000000E+00
  1.171875E+00  1.054688E+01  0.000000E+00
  1.171875E+00  1.093750E+01  0.000000E+00
  1.171875E+00  1.132812E+01  0.000000E+00
  1.171875E+00  1.171875E+01  0.000000E+00
  1.171875E+00  1.210938E+01  0.000000E+00
  1.171875E+00  1.250000E+01  0.000000E+00
  1.171875E+00  1.289062E+01  0.000000E+00
  1.171875E+00  1.328125E+01  0.000000E+00
  1.171875E+00  1.367188E+01  0.000000E+00
  1.171875E+00  1.406250E+01  0.000000E+00
  1.171875E+00  1.445312E+01  0.000000E+00
[...]
POINT_DATA   4096
SCALARS CON  float  1
LOOKUP_TABLE default
  4.365359E-01
  4.350868E-01
  4.405154E-01
  4.394488E-01
  4.397975E-01
  4.332021E-01
  4.338222E-01
  4.332471E-01
  4.390670E-01
  4.375024E-01
  4.379455E-01
  4.327408E-01
  4.342666E-01
  4.321122E-01
  4.348728E-01
  4.324455E-01
  4.361969E-01
  4.360675E-01
  4.401583E-01
  4.366197E-01
  4.363096E-01
  4.310958E-01
  4.321248E-01
  4.289935E-01
  4.309629E-01
  4.276134E-01
  4.296799E-01
  4.287015E-01
  4.353435E-01
  4.372104E-01
  4.405412E-01
  4.343593E-01
  4.328382E-01
  4.302288E-01
  4.362281E-01
  4.365124E-01
  4.382381E-01
  4.323552E-01
  4.318896E-01
  4.283521E-01
  4.313022E-01
  4.292395E-01
  4.314081E-01
  4.282495E-01
  4.306017E-01
  4.283527E-01
  4.316272E-01
  4.316757E-01
  4.389263E-01
  4.401458E-01
  4.415857E-01
  4.336814E-01
  4.312731E-01
  4.277010E-01
  4.330494E-01
  4.358976E-01
  4.442590E-01
  4.448700E-01
  4.460787E-01
  4.396283E-01
  4.394799E-01
  4.366309E-01
  4.391187E-01
  4.352418E-01
  4.364384E-01
  4.361691E-01
  4.436141E-01
  4.452282E-01
  4.449460E-01
  4.355608E-01
  4.321001E-01
  4.299935E-01
  4.356118E-01
  4.355020E-01
  4.368085E-01
  4.335763E-01
  4.364072E-01
  4.350655E-01
  4.358919E-01
  4.313563E-01
  4.334603E-01
  4.348043E-01
  4.411228E-01
  4.398667E-01
  4.387963E-01
  4.318614E-01
  4.309664E-01
  4.287609E-01
  4.324878E-01
  4.313830E-01
  4.332576E-01
  4.309460E-01
  4.347460E-01
  4.354939E-01
  4.390675E-01
  4.352710E-01
  4.345744E-01
  4.312781E-01
  4.343549E-01
  4.330710E-01
  4.344792E-01
  4.308314E-01
  4.324524E-01
  4.308968E-01
  4.330883E-01
  4.291226E-01
  4.284532E-01
  4.246687E-01
  4.271019E-01
  4.261592E-01
  4.300028E-01
  4.317235E-01
  4.403448E-01
  4.433201E-01
  4.443894E-01
  4.355779E-01
  4.318415E-01
  4.294956E-01
  4.366331E-01
  4.410283E-01
  4.477129E-01
  4.457581E-01
  4.440034E-01
  4.368242E-01
  4.366274E-01
  4.353718E-01
  4.387011E-01
  4.356220E-01
  4.297825E-01
  4.351412E-01
  4.439673E-01
  4.467830E-01
  4.445191E-01
  4.363081E-01
  4.323938E-01
  4.314206E-01
  4.351128E-01
  4.359508E-01
  4.370686E-01
  4.358289E-01
  4.372269E-01
  4.364431E-01
  4.365914E-01
  4.343419E-01
  4.354768E-01
  4.364383E-01
  4.396226E-01
  4.389000E-01
  4.379397E-01
  4.339812E-01
  4.326503E-01
  4.307413E-01
  4.320202E-01
  4.313419E-01
  4.318885E-01
  4.301676E-01
  4.313864E-01
  4.313681E-01
  4.324995E-01
  4.300113E-01
  4.297739E-01
  4.301226E-01
  4.346967E-01
  4.363329E-01
  4.367529E-01
  4.329286E-01
  4.316686E-01
  4.301781E-01
  4.312238E-01
  4.288566E-01
  4.268903E-01
  4.231958E-01
  4.238012E-01
  4.250029E-01
  4.299709E-01
  4.343616E-01
  4.414817E-01
  4.442353E-01
  4.434664E-01
  4.363360E-01
  4.322058E-01
  4.307944E-01
  4.356502E-01
  4.402276E-01
  4.460293E-01
  4.463666E-01
  4.437773E-01
  4.358780E-01
  4.306979E-01
  4.265137E-01
  4.266326E-01
  4.260312E-01
  4.292725E-01
  4.361159E-01
  4.429456E-01
  4.473262E-01
  4.423938E-01
  4.347415E-01
  4.278405E-01
  4.282615E-01
  4.306812E-01
  4.346072E-01
  4.355902E-01
  4.380359E-01
  4.389446E-01
  4.399891E-01
  4.369312E-01
  4.348572E-01
  4.333757E-01
  4.363889E-01
  4.383572E-01
  4.399450E-01
  4.375077E-01
  4.360366E-01
  4.340263E-01
  4.351848E-01
  4.353889E-01
  4.365258E-01
  4.343654E-01
  4.325334E-01
  4.294958E-01
  4.301965E-01
  4.312916E-01
  4.341477E-01
  4.339135E-01
  4.340890E-01
  4.325009E-01
  4.326852E-01
  4.311187E-01
  4.316833E-01
  4.321925E-01
  4.351808E-01
  4.346452E-01
  4.324071E-01
  4.275432E-01
  4.269965E-01
  4.282248E-01
  4.318025E-01
  4.324184E-01
  4.345491E-01
  4.366491E-01
  4.403063E-01
  4.386727E-01
  4.349984E-01
  4.306104E-01
  4.327158E-01
  4.373133E-01
  4.438363E-01
  4.457673E-01
  4.451605E-01
  4.392809E-01
  4.337775E-01
  4.283457E-01
  4.273763E-01
  4.264094E-01
  4.276752E-01
  4.267338E-01
  4.365462E-01
  4.401874E-01
  4.438905E-01
  4.362542E-01
  4.322405E-01
  4.258177E-01
  4.285977E-01
  4.282800E-01
  4.338260E-01
  4.340300E-01
  4.389636E-01
  4.370626E-01
  4.387865E-01
  4.343625E-01
  4.359141E-01
  4.335377E-01
  4.373387E-01
  4.354593E-01
  4.381255E-01
  4.352670E-01
  4.379638E-01
  4.348335E-01
  4.359771E-01
  4.314802E-01
  4.330895E-01
  4.299358E-01
  4.315343E-01
  4.273167E-01
  4.294803E-01
  4.283566E-01
  4.332025E-01
  4.314630E-01
  4.339290E-01
  4.314833E-01
  4.349133E-01
  4.322319E-01
  4.339045E-01
  4.308432E-01
  4.342405E-01
  4.316627E-01
  4.323469E-01
  4.273189E-01
  4.302980E-01
  4.312550E-01
  4.376660E-01
  4.355893E-01
  4.362744E-01
  4.320993E-01
  4.348325E-01
  4.320408E-01
  4.331884E-01
  4.291686E-01
  4.325162E-01
  4.324706E-01
  4.382681E-01
  4.381425E-01
  4.417950E-01
  4.374570E-01
  4.360060E-01
  4.284040E-01
  4.269674E-01
  4.220519E-01
  4.251624E-01
  4.317402E-01
  4.380361E-01
  4.381489E-01
  4.413573E-01
  4.338182E-01
  4.307527E-01
  4.233357E-01
  4.256154E-01
  4.243364E-01
  4.305733E-01
  4.309965E-01
  4.372828E-01
  4.355599E-01
  4.376622E-01
  4.319157E-01
  4.332510E-01
  4.309362E-01
  4.370483E-01
  4.367161E-01
  4.407504E-01
  4.367278E-01
  4.384135E-01
  4.334488E-01
  4.342000E-01
  4.289161E-01
  4.315353E-01
  4.293262E-01
  4.327970E-01
  4.287418E-01
  4.320576E-01
  4.323289E-01
  4.398858E-01
  4.375305E-01
  4.369106E-01
  4.292777E-01
  4.307536E-01
  4.286284E-01
  4.337126E-01
  4.328810E-01
  4.378924E-01
  4.339735E-01
  4.333669E-01
  4.274960E-01
  4.332712E-01
  4.370885E-01
  4.451273E-01
  4.400378E-01
  4.368287E-01
  4.288216E-01
  4.312063E-01
  4.291156E-01
  4.321782E-01
  4.283053E-01
  4.321334E-01
  4.312662E-01
  4.362990E-01
  4.334337E-01
  4.358898E-01
  4.322613E-01
  4.355471E-01
  4.327318E-01
  4.356555E-01
  4.315504E-01
  4.339015E-01
  4.313696E-01
  4.359675E-01
  4.354082E-01
  4.370338E-01
  4.321650E-01
  4.317626E-01
  4.279304E-01
  4.293612E-01
  4.269868E-01
  4.305712E-01
  4.310648E-01
  4.355369E-01
  4.331565E-01
  4.336462E-01
  4.302845E-01
  4.336092E-01
  4.342506E-01
  4.396662E-01
  4.391786E-01
  4.413857E-01
  4.379664E-01
  4.385623E-01
  4.332376E-01
  4.305610E-01
  4.236162E-01
  4.246189E-01
  4.250746E-01
  4.307891E-01
  4.300949E-01
  4.331779E-01
  4.334275E-01
  4.388124E-01
  4.367489E-01
  4.360298E-01
  4.314732E-01
  4.346767E-01
  4.347307E-01
  4.378353E-01
  4.348917E-01
  4.361470E-01
  4.322017E-01
  4.317126E-01
  4.278104E-01
  4.325708E-01
  4.367282E-01
  4.445292E-01
  4.420449E-01
  4.389523E-01
  4.311425E-01
  4.313471E-01
  4.297793E-01
  4.326045E-01
  4.296741E-01
  4.308648E-01
  4.279416E-01
  4.299368E-01
  4.280194E-01
  4.316510E-01
  4.317805E-01
  4.364714E-01
  4.352676E-01
  4.364951E-01
  4.319871E-01
  4.328324E-01
  4.332266E-01
  4.334526E-01
  4.334060E-01
  4.359262E-01
  4.350711E-01
  4.349035E-01
  4.320752E-01
  4.317116E-01
  4.300657E-01
  4.318265E-01
  4.325682E-01
  4.353164E-01
  4.344154E-01
  4.341747E-01
  4.318692E-01
  4.335561E-01
  4.356296E-01
  4.412024E-01
  4.434004E-01
  4.444843E-01
  4.404834E-01
  4.377384E-01
  4.330463E-01
  4.304825E-01
  4.264403E-01
  4.271381E-01
  4.287948E-01
  4.330549E-01
  4.333274E-01
  4.353976E-01
  4.377644E-01
  4.433141E-01
  4.429315E-01
  4.396297E-01
  4.337027E-01
  4.339175E-01
  4.352626E-01
  4.385955E-01
  4.382540E-01
  4.389450E-01
  4.359601E-01
  4.335336E-01
  4.300287E-01
  4.328803E-01
  4.371367E-01
  4.423292E-01
  4.403784E-01
  4.369855E-01
  4.323594E-01
  4.331176E-01
  4.331680E-01
  4.339999E-01
  4.314137E-01
  4.319102E-01
  4.319271E-01
  4.338474E-01
  4.317306E-01
  4.308591E-01
  4.295305E-01
  4.331066E-01
  4.357823E-01
  4.392678E-01
  4.379282E-01
  4.367202E-01
  4.278525E-01
  4.293825E-01
  4.310829E-01
  4.343612E-01
  4.358044E-01
  4.379365E-01
  4.380443E-01
  4.382085E-01
  4.362551E-01
  4.362864E-01
  4.362491E-01
  4.371917E-01
  4.352405E-01
  4.340849E-01
  4.332942E-01
  4.360342E-01
  4.385957E-01
  4.420380E-01
  4.425063E-01
  4.419627E-01
  4.385627E-01
  4.364316E-01
  4.333840E-01
  4.312969E-01
  4.280861E-01
  4.283453E-01
  4.302473E-01
  4.340179E-01
  4.344688E-01
  4.348497E-01
  4.351980E-01
  4.382174E-01
  4.386897E-01
  4.383344E-01
  4.371797E-01
  4.396491E-01
  4.410669E-01
  4.409873E-01
  4.370844E-01
  4.346366E-01
  4.324883E-01
  4.325637E-01
  4.316061E-01
  4.325102E-01
  4.330247E-01
  4.349162E-01
  4.344173E-01
  4.342525E-01
  4.333927E-01
  4.352126E-01
  4.358349E-01
  4.360776E-01
  4.336671E-01
  4.332272E-01
  4.333299E-01
  4.354145E-01
  4.349790E-01
  4.341974E-01
  4.319508E-01
  4.321892E-01
  4.320131E-01
  4.325544E-01
  4.305565E-01
  4.293766E-01
  4.282719E-01
  4.282950E-01
  4.304041E-01
  4.349603E-01
  4.372265E-01
  4.384778E-01
  4.375797E-01
  4.376210E-01
  4.367597E-01
  4.373376E-01
  4.373467E-01
  4.383235E-01
  4.372839E-01
  4.363007E-01
  4.341684E-01
  4.341347E-01
  4.348391E-01
  4.381753E-01
  4.402371E-01
  4.407603E-01
  4.372270E-01
  4.341563E-01
  4.318551E-01
  4.325392E-01
  4.330854E-01
  4.353906E-01
  4.371308E-01
  4.387958E-01
  4.369498E-01
  4.353585E-01
  4.349320E-01
  4.379026E-01
  4.389614E-01
  4.383134E-01
  4.358883E-01
  4.364798E-01
  4.373247E-01
  4.379528E-01
  4.355708E-01
  4.339075E-01
  4.321722E-01
  4.325945E-01
  4.328122E-01
  4.343371E-01
  4.338457E-01
  4.327213E-01
  4.299448E-01
  4.299660E-01
  4.319667E-01
  4.365493E-01
  4.382762E-01
  4.375643E-01
  4.344504E-01
  4.348947E-01
  4.378507E-01
  4.421853E-01
  4.415756E-01
  4.376654E-01
  4.319644E-01
  4.302802E-01
  4.308670E-01
  4.333449E-01
  4.330116E-01
  4.314238E-01
  4.259087E-01
  4.275579E-01
  4.298602E-01
  4.332893E-01
  4.350066E-01
  4.370318E-01
  4.376057E-01
  4.382103E-01
  4.370552E-01
  4.372310E-01
  4.373626E-01
  4.381112E-01
  4.363085E-01
  4.345556E-01
  4.326311E-01
  4.330981E-01
  4.336932E-01
  4.358993E-01
  4.370873E-01
  4.378210E-01
  4.355795E-01
  4.334193E-01
  4.310200E-01
  4.308846E-01
  4.312540E-01
  4.342529E-01
  4.372404E-01
  4.397406E-01
  4.378541E-01
  4.344851E-01
  4.308184E-01
  4.305386E-01
  4.309747E-01
  4.328693E-01
  4.344807E-01
  4.376840E-01
  4.387241E-01
  4.374388E-01
  4.323715E-01
  4.283922E-01
  4.264669E-01
  4.289964E-01
  4.319996E-01
  4.344067E-01
  4.330078E-01
  4.310564E-01
  4.291938E-01
  4.309237E-01
  4.339934E-01
  4.381413E-01
  4.389137E-01
  4.375072E-01
  4.340260E-01
  4.333898E-01
  4.349775E-01
  4.390236E-01
  4.404625E-01
  4.396090E-01
  4.359400E-01
  4.338102E-01
  4.320457E-01
  4.313936E-01
  4.289898E-01
  4.273072E-01
  4.296407E-01
  4.295899E-01
  4.306246E-01
  4.339589E-01
  4.351108E-01
  4.359178E-01
  4.343809E-01
  4.339960E-01
  4.328103E-01
  4.338716E-01
  4.345794E-01
  4.365611E-01
  4.358599E-01
  4.346752E-01
  4.315137E-01
  4.307333E-01
  4.310747E-01
  4.351217E-01
  4.384543E-01
  4.407760E-01
  4.380062E-01
  4.343485E-01
  4.302532E-01
  4.300982E-01
  4.313338E-01
  4.357398E-01
  4.391842E-01
  4.418276E-01
  4.395206E-01
  4.363343E-01
  4.329035E-01
  4.332049E-01
  4.330289E-01
  4.331262E-01
  4.314853E-01
  4.323633E-01
  4.330822E-01
  4.343532E-01
  4.323942E-01
  4.305855E-01
  4.281922E-01
  4.292814E-01
  4.313395E-01
  4.351106E-01
  4.355885E-01
  4.348358E-01
  4.323652E-01
  4.333447E-01
  4.354845E-01
  4.388799E-01
  4.380278E-01
  4.353224E-01
  4.311103E-01
  4.312670E-01
  4.337583E-01
  4.384954E-01
  4.395770E-01
  4.388867E-01
  4.360967E-01
  4.361806E-01
  4.364389E-01
  4.374940E-01
  4.353259E-01
  4.329812E-01
  4.279523E-01
  4.306553E-01
  4.309696E-01
  4.336582E-01
  4.337839E-01
  4.362735E-01
  4.351020E-01
  4.349443E-01
  4.317633E-01
  4.326142E-01
  4.327270E-01
  4.352718E-01
  4.332404E-01
  4.324451E-01
  4.300346E-01
  4.323087E-01
  4.334705E-01
  4.374967E-01
  4.384658E-01
  4.407561E-01
  4.384311E-01
  4.367111E-01
  4.315263E-01
  4.296203E-01
  4.273809E-01
  4.306278E-01
  4.333455E-01
  4.381335E-01
  4.374434E-01
  4.363997E-01
  4.321215E-01
  4.318349E-01
  4.305128E-01
  4.323916E-01
  4.321211E-01
  4.349010E-01
  4.347128E-01
  4.353601E-01
  4.315695E-01
  4.300071E-01
  4.274647E-01
  4.297405E-01
  4.306353E-01
  4.335593E-01
  4.328203E-01
  4.344358E-01
  4.342044E-01
  4.371340E-01
  4.370095E-01
  4.378106E-01
  4.341042E-01
  4.321588E-01
  4.285021E-01
  4.291560E-01
  4.289544E-01
  4.325300E-01
  4.340835E-01
  4.379647E-01
  4.384074E-01
  4.400832E-01
  4.372692E-01
  4.351825E-01
  4.301120E-01
  4.291693E-01
  4.314619E-01
  4.329396E-01
  4.322010E-01
  4.349682E-01
  4.350434E-01
  4.366668E-01
  4.338069E-01
  4.327890E-01
  4.295731E-01
  4.306829E-01
  4.305676E-01
  4.334793E-01
  4.324675E-01
  4.328230E-01
  4.303952E-01
  4.320970E-01
  4.326176E-01
  4.366867E-01
  4.379588E-01
  4.410063E-01
  4.392433E-01
  4.380351E-01
  4.331156E-01
  4.316811E-01
  4.291466E-01
  4.310881E-01
  4.316535E-01
  4.352780E-01
  4.351175E-01
  4.364598E-01
  4.350451E-01
  4.371693E-01
  4.361424E-01
  4.359932E-01
  4.319001E-01
  4.315277E-01
  4.303234E-01
  4.328987E-01
  4.327248E-01
  4.348910E-01
  4.336149E-01
  4.343005E-01
  4.320796E-01
  4.333455E-01
  4.327539E-01
  4.351145E-01
  4.342785E-01
  4.356694E-01
  4.338022E-01
  4.338349E-01
  4.301699E-01
  4.293823E-01
  4.276281E-01
  4.308048E-01
  4.321265E-01
  4.354176E-01
  4.347384E-01
  4.363903E-01
  4.356021E-01
  4.375543E-01
  4.357880E-01
  4.356542E-01
  4.326073E-01
  4.330581E-01
  4.318220E-01
  4.336129E-01
  4.328109E-01
  4.329434E-01
  4.335340E-01
  4.357168E-01
  4.359444E-01
  4.351340E-01
  4.324861E-01
  4.315715E-01
  4.311684E-01
  4.318523E-01
  4.307825E-01
  4.306517E-01
  4.313728E-01
  4.344753E-01
  4.359004E-01
  4.361923E-01
  4.351000E-01
  4.364192E-01
  4.378718E-01
  4.388256E-01
  4.361167E-01
  4.325460E-01
  4.283009E-01
  4.266105E-01
  4.264080E-01
  4.291464E-01
  4.313319E-01
  4.328828E-01
  4.320348E-01
  4.321667E-01
  4.323289E-01
  4.337241E-01
  4.339651E-01
  4.347244E-01
  4.339396E-01
  4.332932E-01
  4.319037E-01
  4.326987E-01
  4.336444E-01
  4.348596E-01
  4.333958E-01
  4.319132E-01
  4.306303E-01
  4.320495E-01
  4.329827E-01
  4.334384E-01
  4.313525E-01
  4.295836E-01
  4.277274E-01
  4.286285E-01
  4.305288E-01
  4.336847E-01
  4.344627E-01
  4.344785E-01
  4.334988E-01
  4.343706E-01
  4.344763E-01
  4.339706E-01
  4.307099E-01
  4.282025E-01
  4.269959E-01
  4.294318E-01
  4.395163E-01
  4.366239E-01
  4.344827E-01
  4.323145E-01
  4.337109E-01
  4.336662E-01
  4.345352E-01
  4.331039E-01
  4.332382E-01
  4.316226E-01
  4.317875E-01
  4.305351E-01
  4.313779E-01
  4.311882E-01
  4.337641E-01
  4.351502E-01
  4.371510E-01
  4.357397E-01
  4.360396E-01
  4.363323E-01
  4.390857E-01
  4.384247E-01
  4.370703E-01
  4.330269E-01
  4.310179E-01
  4.280298E-01
  4.280508E-01
  4.282088E-01
  4.309285E-01
  4.311170E-01
  4.321826E-01
  4.321642E-01
  4.346392E-01
  4.346372E-01
  4.347177E-01
  4.323341E-01
  4.320130E-01
  4.308445E-01
  4.326510E-01
  4.338751E-01
  4.363789E-01
  4.351664E-01
  4.343028E-01
  4.325956E-01
  4.342449E-01
  4.340749E-01
  4.335949E-01
  4.298717E-01
  4.284638E-01
  4.271655E-01
  4.289585E-01
  4.300698E-01
  4.341965E-01
  4.373047E-01
  4.405098E-01
  4.384962E-01
  4.355090E-01
  4.306453E-01
  4.288867E-01
  4.267793E-01
  4.276439E-01
  4.288446E-01
  4.338714E-01
  4.372538E-01
  4.421464E-01
  4.390876E-01
  4.355916E-01
  4.310821E-01
  4.315828E-01
  4.319362E-01
  4.346721E-01
  4.344121E-01
  4.353695E-01
  4.336120E-01
  4.335648E-01
  4.307594E-01
  4.300644E-01
  4.290811E-01
  4.334696E-01
  4.372724E-01
  4.408796E-01
  4.382392E-01
  4.364119E-01
  4.347507E-01
  4.375805E-01
  4.373865E-01
  4.363486E-01
  4.311808E-01
  4.283687E-01
  4.249791E-01
  4.260162E-01
  4.271649E-01
  4.307063E-01
  4.297243E-01
  4.287321E-01
  4.267393E-01
  4.302655E-01
  4.336753E-01
  4.382402E-01
  4.378504E-01
  4.369415E-01
  4.326491E-01
  4.312774E-01
  4.297339E-01
  4.317173E-01
  4.314947E-01
  4.329442E-01
  4.326413E-01
  4.352028E-01
  4.348681E-01
  4.343169E-01
  4.299287E-01
  4.285826E-01
  4.276421E-01
  4.308523E-01
  4.327378E-01
  4.368516E-01
  4.378357E-01
  4.384649E-01
  4.342346E-01
  4.314877E-01
  4.279287E-01
  4.277119E-01
  4.254591E-01
  4.258671E-01
  4.266870E-01
  4.330088E-01
  4.380970E-01
  4.466483E-01
  4.418444E-01
  4.368448E-01
  4.330166E-01
  4.322468E-01
  4.310920E-01
  4.309372E-01
  4.306738E-01
  4.322591E-01
  4.327195E-01
  4.328996E-01
  4.310128E-01
  4.298803E-01
  4.290188E-01
  4.312726E-01
  4.341541E-01
  4.372158E-01
  4.369509E-01
  4.361847E-01
  4.350354E-01
  4.356349E-01
  4.347803E-01
  4.337062E-01
  4.313219E-01
  4.302609E-01
  4.289379E-01
  4.297271E-01
  4.309793E-01
  4.330392E-01
  4.322390E-01
  4.313994E-01
  4.316790E-01
  4.356877E-01
  4.386509E-01
  4.394133E-01
  4.362905E-01
  4.335561E-01
  4.312768E-01
  4.317255E-01
  4.320651E-01
  4.326316E-01
  4.314052E-01
  4.321810E-01
  4.346224E-01
  4.387049E-01
  4.385531E-01
  4.347232E-01
  4.287464E-01
  4.268955E-01
  4.282293E-01
  4.320004E-01
  4.339881E-01
  4.360995E-01
  4.370584E-01
  4.376828E-01
  4.348011E-01
  4.312340E-01
  4.275581E-01
  4.267922E-01
  4.266663E-01
  4.291045E-01
  4.332755E-01
  4.405424E-01
  4.456090E-01
  4.416566E-01
  4.395645E-01
  4.361526E-01
  4.325881E-01
  4.314755E-01
  4.308530E-01
  4.311713E-01
  4.307388E-01
  4.312738E-01
  4.315070E-01
  4.321428E-01
  4.307199E-01
  4.288103E-01
  4.270203E-01
  4.286721E-01
  4.316735E-01
  4.344425E-01
  4.335070E-01
  4.313968E-01
  4.295473E-01
  4.307640E-01
  4.324396E-01
  4.338218E-01
  4.325618E-01
  4.308472E-01
  4.289337E-01
  4.297611E-01
  4.319070E-01
  4.344371E-01
  4.335110E-01
  4.315620E-01
  4.309236E-01
  4.346493E-01
  4.386437E-01
  4.406187E-01
  4.383823E-01
  4.353432E-01
  4.321490E-01
  4.309087E-01
  4.298993E-01
  4.300643E-01
  4.300871E-01
  4.319552E-01
  4.342635E-01
  4.368661E-01
  4.361071E-01
  4.329753E-01
  4.284266E-01
  4.268479E-01
  4.276332E-01
  4.306079E-01
  4.326020E-01
  4.343835E-01
  4.342686E-01
  4.332862E-01
  4.307347E-01
  4.301314E-01
  4.312530E-01
  4.339759E-01
  4.344357E-01
  4.339217E-01
  4.334399E-01
  4.362135E-01
  4.395326E-01
  4.394694E-01
  4.358436E-01
  4.355187E-01
  4.327920E-01
  4.337384E-01
  4.307774E-01
  4.305693E-01
  4.274173E-01
  4.285484E-01
  4.273011E-01
  4.298609E-01
  4.292072E-01
  4.314681E-01
  4.298379E-01
  4.311713E-01
  4.291841E-01
  4.304157E-01
  4.279897E-01
  4.286634E-01
  4.267013E-01
  4.296015E-01
  4.308211E-01
  4.356683E-01
  4.357637E-01
  4.370883E-01
  4.341898E-01
  4.356438E-01
  4.352664E-01
  4.379161E-01
  4.355058E-01
  4.361529E-01
  4.357422E-01
  4.402949E-01
  4.394667E-01
  4.379042E-01
  4.313454E-01
  4.301699E-01
  4.289128E-01
  4.325441E-01
  4.323399E-01
  4.339742E-01
  4.316662E-01
  4.338340E-01
  4.343798E-01
  4.377887E-01
  4.347257E-01
  4.320497E-01
  4.262898E-01
  4.266575E-01
  4.263516E-01
  4.299842E-01
  4.298300E-01
  4.328677E-01
  4.328702E-01
  4.357839E-01
  4.344723E-01
  4.364816E-01
  4.363812E-01
  4.402862E-01
  4.397176E-01
  4.407425E-01
  4.380777E-01
  4.397188E-01
  4.384689E-01
  4.326926E-01
  4.311763E-01
  4.345644E-01
  4.313700E-01
  4.340282E-01
  4.313317E-01
  4.341609E-01
  4.299400E-01
  4.305681E-01
  4.261962E-01
  4.295469E-01
  4.285143E-01
  4.333593E-01
  4.320009E-01
  4.359212E-01
  4.328532E-01
  4.337452E-01
  4.274889E-01
  4.273886E-01
  4.239263E-01
  4.295284E-01
  4.314530E-01
  4.382525E-01
  4.359839E-01
  4.368908E-01
  4.321620E-01
  4.355869E-01
  4.349351E-01
  4.390224E-01
  4.345426E-01
  4.349468E-01
  4.316830E-01
  4.364818E-01
  4.348146E-01
  4.364631E-01
  4.312191E-01
  4.328023E-01
  4.297125E-01
  4.323480E-01
  4.290010E-01
  4.322226E-01
  4.309080E-01
  4.357958E-01
  4.339643E-01
  4.363213E-01
  4.315905E-01
  4.324937E-01
  4.283692E-01
  4.308156E-01