# vtk DataFile Version 2.0
title
ASCII
DATASET STRUCTURED_GRID
DIMENSIONS   64   64    1
POINTS   4096  float
  0.000000E+00  0.000000E+00  0.000000E+00
  0.000000E+00  3.906250E-01  0.000000E+00
  0.000000E+00  7.812500E-01  0.000000E+00
  0.000000E+00  1.171875E+00  0.000000E+00
  0.000000E+00  1.562500E+00  0.000000E+00
  0.000000E+00  1.953125E+00  0.000000E+00
  0.000000E+00  2.343750E+00  0.000000E+00
  0.000000E+00  2.734375E+00  0.000000E+00
  0.000000E+00  3.125000E+00  0.000000E+00
  0.000000E+00  3.515625E+00  0.000000E+00
  0.000000E+00  3.906250E+00  0.000000E+00
  0.000000E+00  4.296875E+00  0.000000E+00
  0.000000E+00  4.687500E+00  0.000000E+00
  0.000000E+00  5.078125E+00  0.000000E+00
  0.000000E+00  5.468750E+00  0.000000E+00
  0.000000E+00  5.859375E+00  0.000000E+00
  0.000000E+00  6.250000E+00  0.000000E+00
  0.000000E+00  6.640625E+00  0.000000E+00
  0.000000E+00  7.031250E+00  0.000000E+00
  0.000000E+00  7.421875E+00  0.000000E+00
  0.000000E+00  7.812500E+00  0.000000E+00
  0.000000E+00  8.203125E+00  0.000000E+00
  0.000000E+00  8.593750E+00  0.000000E+00
  0.000000E+00  8.984375E+00  0.000000E+00
  0.000000E+00  9.375000E+00  0.000000E+00
  0.000000E+00  9.765625E+00  0.000000E+00
  0.000000E+00  1.015625E+01  0.000000E+00
  0.000000E+00  1.054688E+01  0.000000E+00
  0.000000E+00  1.093750E+01  0.000000E+00
  0.000000E+00  1.132812E+01  0.000000E+00
  0.000000E+00  1.171875E+01  0.000000E+00
  0.000000E+00  1.210938E+01  0.000000E+00
  0.000000E+00  1.250000E+01  0.000000E+00
  0.000000E+00  1.289062E+01  0.000000E+00
  0.000000E+00  1.328125E+01  0.000000E+00
  0.000000E+00  1.367188E+01  0.000000E+00
  0.000000E+00  1.406250E+01  0.000000E+00
  0.000000E+00  1.445312E+01  0.000000E+00
  0.000000E+00  1.484375E+01  0.000000E+00
  0.000000E+00  1.523438E+01  0.000000E+00
  0.000000E+00  1.562500E+01  0.000000E+00
  0.000000E+00  1.601562E+01  0.000000E+00
  0.000000E+00  1.640625E+01  0.000000E+00
  0.000000E+00  1.679688E+01  0.000000E+00
  0.000000E+00  1.718750E+01  0.000000E+00
  0.000000E+00  1.757812E+01  0.000000E+00
  0.000000E+00  1.796875E+01  0.000000E+00
  0.000000E+00  1.835938E+01  0.000000E+00
  0.000000E+00  1.875000E+01  0.000000E+00
  0.000000E+00  1.914062E+01  0.000000E+00
  0.000000E+00  1.953125E+01  0.000000E+00
  0.000000E+00  1.992188E+01  0.000000E+00
  0.000000E+00  2.031250E+01  0.000000E+00
  0.000000E+00  2.070312E+01  0.000000E+00
  0.000000E+00  2.109375E+01  0.000000E+00
  0.000000E+00  2.148438E+01  0.000000E+00
  0.000000E+00  2.187500E+01  0.000000E+00
  0.000000E+00  2.226562E+01  0.000000E+00
  0.000000E+00  2.265625E+01  0.000000E+00
  0.000000E+00  2.304688E+01  0.000000E+00
  0.000000E+00  2.343750E+01  0.000000E+00
  0.000000E+00  2.382812E+01  0.000000E+00
  0.000000E+00  2.421875E+01  0.000000E+00
  0.000000E+00  2.460938E+01  0.000000E+00
  3.906250E-01  0.000000E+00  0.000000E+00
  3.906250E-01  3.906250E-01  0.000000E+00
  3.906250E-01  7.812500E-01  0.000000E+00
  3.906250E-01  1.171875E+00  0.000000E+00
  3.906250E-01  1.562500E+00  0.000000E+00
  3.906250E-01  1.953125E+00  0.000000E+00
  3.906250E-01  2.343750E+00  0.000000E+00
  3.906250E-01  2.734375E+00  0.000000E+00
  3.906250E-01  3.125000E+00  0.000000E+00
  3.906250E-01  3.515625E+00  0.000000E+00
  3.906250E-01  3.906250E+00  0.000000E+00
  3.906250E-01  4.296875E+00  0.000000E+00
  3.906250E-01  4.687500E+00  0.000000E+00
  3.906250E-01  5.078125E+00  0.000000E+00
  3.906250E-01  5.468750E+00  0.000000E+00
  3.906250E-01  5.859375E+00  0.000000E+00
  3.906250E-01  6.250000E+00  0.000000E+00
  3.906250E-01  6.640625E+00  0.000000E+00
  3.906250E-01  7.031250E+00  0.000000E+00
  3.906250E-01  7.421875E+00  0.000000E+00
  3.906250E-01  7.812500E+00  0.000000E+00
  3.906250E-01  8.203125E+00  0.000000E+00
  3.906250E-01  8.593750E+00  0.000000E+00
  3.906250E-01  8.984375E+00  0.000000E+00
  3.906250E-01  9.375000E+00  0.000000E+00
  3.906250E-01  9.765625E+00  0.000000E+00
  3.906250E-01  1.015625E+01  0.000000E+00
  3.906250E-01  1.054688E+01  0.000000E+00
  3.906250E-01  1.093750E+01  0.000000E+00
  3.906250E-01  1.132812E+01  0.000000E+00
  3.906250E-01  1.171875E+01  0.000000E+00
  3.906250E-01  1.210938E+01  0.000000E+00
  3.906250E-01  1.250000E+01  0.000000E+00
  3.906250E-01  1.289062E+01  0.000000E+00
  3.906250E-01  1.328125E+01  0.000000E+00
  3.906250E-01  1.367188E+01  0.000000E+00
  3.906250E-01  1.406250E+01  0.000000E+00
  3.906250E-01  1.445312E+01  0.000000E+00
  3.906250E-01  1.484375E+01  0.000000E+00
  3.906250E-01  1.523438E+01  0.000000E+00
  3.906250E-01  1.562500E+01  0.000000E+00
  3.906250E-01  1.601562E+01  0.000000E+00
  3.906250E-01  1.640625E+01  0.000000E+00
  3.906250E-01  1.679688E+01  0.000000E+00
  3.906250E-01  1.718750E+01  0.000000E+00
  3.906250E-01  1.757812E+01  0.000000E+00
  3.906250E-01  1.796875E+01  0.000000E+00
  3.906250E-01  1.835938E+01  0.000000E+00
  3.906250E-01  1.875000E+01  0.000000E+00
  3.906250E-01  1.914062E+01  0.000000E+00
  3.906250E-01  1.953125E+01  0.000000E+00
  3.906250E-01  1.992188E+01  0.000000E+00
  3.906250E-01  2.031250E+01  0.000000E+00
  3.906250E-01  2.070312E+01  0.000000E+00
  3.906250E-01  2.109375E+01  0.000000E+00
  3.906250E-01  2.148438E+01  0.000000E+00
  3.906250E-01  2.187500E+01  0.000000E+00
  3.906250E-01  2.226562E+01  0.000000E+00
  3.906250E-01  2.265625E+01  0.000000E+00
  3.906250E-01  2.304688E+01  0.000000E+00
  3.906250E-01  2.343750E+01  0.000000E+00
  3.906250E-01  2.382812E+01  0.000000E+00
  3.906250E-01  2.421875E+01  0.000000E+00
  3.906250E-01  2.460938E+01  0.000000E+00
  7.812500E-01  0.000000E+00  0.000000E+00
  7.812500E-01  3.906250E-01  0.000000E+00
  7.812500E-01  7.812500E-01  0.000000E+00
  7.812500E-01  1.171875E+00  0.000000E+00
  7.812500E-01  1.562500E+00  0.000000E+00
  7.812500E-01  1.953125E+00  0.000000E+00
  7.812500E-01  2.343750E+00  0.000000E+00
  7.812500E-01  2.734375E+00  0.000000E+00
  7.812500E-01  3.125000E+00  0.000000E+00
  7.812500E-01  3.515625E+00  0.000000E+00
  7.812500E-01  3.906250E+00  0.000000E+00
  7.812500E-01  4.296875E+00  0.000000E+00
  7.812500E-01  4.687500E+00  0.000000E+00
  7.812500E-01  5.078125E+00  0.000000E+00
  7.812500E-01  5.468750E+00  0.000000E+00
  7.812500E-01  5.859375E+00  0.000000E+00
  7.812500E-01  6.250000E+00  0.000000E+00
  7.812500E-01  6.640625E+00  0.000000E+00
  7.812500E-01  7.031250E+00  0.000000E+00
  7.812500E-01  7.421875E+00  0.000000E+00
  7.812500E-01  7.812500E+00  0.000000E+00
  7.812500E-01  8.203125E+00  0.000000E+00
  7.812500E-01  8.593750E+00  0.000000E+00
  7.812500E-01  8.984375E+00  0.000000E+00
  7.812500E-01  9.375000E+00  0.000000E+00
  7.812500E-01  9.765625E+00  0.000000E+00
  7.812500E-01  1.015625E+01  0.000000E+00
  7.812500E-01  1.054688E+01  0.000000E+00
  7.812500E-01  1.093750E+01  0.000000E+00
  7.812500E-01  1.132812E+01  0.000000E+00
  7.812500E-01  1.171875E+01  0.000000E+00
  7.812500E-01  1.210938E+01  0.000000E+00
  7.812500E-01  1.250000E+01  0.000000E+00
  7.812500E-01  1.289062E+01  0.000000E+00
  7.812500E-01  1.328125E+01  0.000000E+00
  7.812500E-01  1.367188E+01  0.000000E+00
  7.812500E-01  1.406250E+01  0.000000E+00
  7.812500E-01  1.445312E+01  0.000000E+00
  7.812500E-01  1.484375E+01  0.000000E+00
  7.812500E-01  1.523438E+01  0.000000E+00
  7.812500E-01  1.562500E+01  0.000000E+00
  7.812500E-01  1.601562E+01  0.000000E+00
  7.812500E-01  1.640625E+01  0.000000E+00
  7.812500E-01  1.679688E+01  0.000000E+00
  7.812500E-01  1.718750E+01  0.000000E+00
  7.812500E-01  1.757812E+01  0.000000E+00
  7.812500E-01  1.796875E+01  0.000000E+00
  7.812500E-01  1.835938E+01  0.000000E+00
  7.812500E-01  1.875000E+01  0.000000E+00
  7.812500E-01  1.914062E+01  0.000000E+00
  7.812500E-01  1.953125E+01  0.000000E+00
  7.812500E-01  1.992188E+01  0.000000E+00
  7.812500E-01  2.031250E+01  0.000000E+00
  7.812500E-01  2.070312E+01  0.000000E+00
  7.812500E-01  2.109375E+01  0.000000E+00
  7.812500E-01  2.148438E+01  0.000000E+00
  7.812500E-01  2.187500E+01  0.000000E+00
  7.812500E-01  2.226562E+01  0.000000E+00
  7.812500E-01  2.265625E+01  0.000000E+00
  7.812500E-01  2.304688E+01  0.000000E+00
  7.812500E-01  2.343750E+01  0.000000E+00
  7.812500E-01  2.382812E+01  0.000000E+00
  7.812500E-01  2.421875E+01  0.000000E+00
  7.812500E-01  2.460938E+01  0.000000E+00
  1.171875E+00  0.000000E+00  0.000000E+00
  1.171875E+00  3.906250E-01  0.000000E+00
  1.171875E+00  7.812500E-01  0.000000E+00
  1.171875E+00  1.171875E+00  0.000000E+00
  1.171875E+00  1.562500E+00  0.000000E+00
  1.171875E+00  1.953125E+00  0.000000E+00
  1.171875E+00  2.343750E+00  0.000000E+00
  1.171875E+00  2.734375E+00  0.000000E+00
  1.171875E+00  3.125000E+00  0.000000E+00
  1.171875E+00  3.515625E+00  0.000000E+00
  1.171875E+00  3.906250E+00  0.000000E+00
  1.171875E+00  4.296875E+00  0.000000E+00
  1.171875E+00  4.687500E+00  0.000000E+00
  1.171875E+00  5.078125E+00  0.000000E+00
  1.171875E+00  5.468750E+00  0.000000E+00
  1.171875E+00  5.859375E+00  0.000000E+00
  1.171875E+00  6.250000E+00  0.000000E+00
  1.171875E+00  6.640625E+00  0.000000E+00
  1.171875E+00  7.031250E+00  0.000000E+00
  1.171875E+00  7.421875E+00  0.000000E+00
  1.171875E+00  7.812500E+00  0.000000E+00
  1.171875E+00  8.203125E+00  0.000000E+00
  1.171875E+00  8.593750E+00  0.000000E+00
  1.171875E+00  8.984375E+00  0.000000E+00
  1.171875E+00  9.375000E+00  0.000000E+00
  1.171875E+00  9.765625E+00  0.000000E+00
  1.171875E+00  1.015625E+01  0.000000E+00
  1.171875E+00  1.054688E+01  0.000000E+00
  1.171875E+00  1.093750E+01  0.000000E+00
  1.171875E+00  1.132812E+01  0.000000E+00
  1.171875E+00  1.171875E+01  0.000000E+00
  1.171875E+00  1.210938E+01  0.000000E+00
  1.171875E+00  1.250000E+01  0.000000E+00
  1.171875E+00  1.289062E+01  0.000000E+00
  1.171875E+00  1.328125E+01  0.000000E+00
  1.171875E+00  1.367188E+01  0.000000E+00
  1.171875E+00  1.406250E+01  0.000000E+00
  1.171875E+00  1.445312E+01  0.000000E+00
[...]
POINT_DATA   4096
SCALARS CON  float  1
LOOKUP_TABLE default
  3.886342E-01
  3.882567E-01
  3.930631E-01
  3.906598E-01
  3.915756E-01
  3.864312E-01
  3.880424E-01
  3.862824E-01
  3.907161E-01
  3.887499E-01
  3.904761E-01
  3.858065E-01
  3.868313E-01
  3.835795E-01
  3.869259E-01
  3.858382E-01
  3.905160E-01
  3.892894E-01
  3.921459E-01
  3.880206E-01
  3.884419E-01
  3.835779E-01
  3.846867E-01
  3.808406E-01
  3.824839E-01
  3.791765E-01
  3.823780E-01
  3.818552E-01
  3.876439E-01
  3.872988E-01
  3.902367E-01
  3.859080E-01
  3.869574E-01
  3.842269E-01
  3.884021E-01
  3.870950E-01
  3.895867E-01
  3.850444E-01
  3.854836E-01
  3.812784E-01
  3.833388E-01
  3.804030E-01
  3.827004E-01
  3.794911E-01
  3.818796E-01
  3.798407E-01
  3.847141E-01
  3.858199E-01
  3.926750E-01
  3.921850E-01
  3.935587E-01
  3.865239E-01
  3.847251E-01
  3.804162E-01
  3.855853E-01
  3.884191E-01
  3.967601E-01
  3.967673E-01
  3.984319E-01
  3.921812E-01
  3.911310E-01
  3.858097E-01
  3.872631E-01
  3.846056E-01
  3.895111E-01
  3.903722E-01
  3.957755E-01
  3.948119E-01
  3.945776E-01
  3.879719E-01
  3.863913E-01
  3.833791E-01
  3.868611E-01
  3.866872E-01
  3.898734E-01
  3.878395E-01
  3.893765E-01
  3.863358E-01
  3.873844E-01
  3.848748E-01
  3.879081E-01
  3.878692E-01
  3.917035E-01
  3.894743E-01
  3.894698E-01
  3.846253E-01
  3.848773E-01
  3.823778E-01
  3.848253E-01
  3.830527E-01
  3.852676E-01
  3.836972E-01
  3.871113E-01
  3.867469E-01
  3.899795E-01
  3.877443E-01
  3.887307E-01
  3.853576E-01
  3.865096E-01
  3.837857E-01
  3.854063E-01
  3.830926E-01
  3.852612E-01
  3.831618E-01
  3.845025E-01
  3.807950E-01
  3.810106E-01
  3.777146E-01
  3.796651E-01
  3.787197E-01
  3.833689E-01
  3.853412E-01
  3.919239E-01
  3.924259E-01
  3.934910E-01
  3.873915E-01
  3.857503E-01
  3.834048E-01
  3.894913E-01
  3.935228E-01
  4.002345E-01
  3.985397E-01
  3.973419E-01
  3.907348E-01
  3.895870E-01
  3.860605E-01
  3.877965E-01
  3.859902E-01
  3.834543E-01
  3.888910E-01
  3.951025E-01
  3.963185E-01
  3.944247E-01
  3.887394E-01
  3.854075E-01
  3.835792E-01
  3.856333E-01
  3.871349E-01
  3.894256E-01
  3.892319E-01
  3.895178E-01
  3.878766E-01
  3.875844E-01
  3.864884E-01
  3.877624E-01
  3.883555E-01
  3.901298E-01
  3.894154E-01
  3.888831E-01
  3.863983E-01
  3.855039E-01
  3.837478E-01
  3.837612E-01
  3.825860E-01
  3.830194E-01
  3.824812E-01
  3.836843E-01
  3.834209E-01
  3.839949E-01
  3.827521E-01
  3.832482E-01
  3.834209E-01
  3.857936E-01
  3.864447E-01
  3.871330E-01
  3.851532E-01
  3.841848E-01
  3.821159E-01
  3.815622E-01
  3.793469E-01
  3.783266E-01
  3.764735E-01
  3.773139E-01
  3.784976E-01
  3.826643E-01
  3.864608E-01
  3.913320E-01
  3.926858E-01
  3.922161E-01
  3.879573E-01
  3.852696E-01
  3.839634E-01
  3.877180E-01
  3.924175E-01
  3.978780E-01
  3.984889E-01
  3.962948E-01
  3.899614E-01
  3.846786E-01
  3.795232E-01
  3.782538E-01
  3.786310E-01
  3.837898E-01
  3.901510E-01
  3.942694E-01
  3.969580E-01
  3.927238E-01
  3.875328E-01
  3.810979E-01
  3.799737E-01
  3.803790E-01
  3.846993E-01
  3.871795E-01
  3.905883E-01
  3.903173E-01
  3.902878E-01
  3.871740E-01
  3.864146E-01
  3.853808E-01
  3.881705E-01
  3.894499E-01
  3.914781E-01
  3.895914E-01
  3.886362E-01
  3.859936E-01
  3.863685E-01
  3.854262E-01
  3.862694E-01
  3.844102E-01
  3.841547E-01
  3.824183E-01
  3.837829E-01
  3.840417E-01
  3.862047E-01
  3.854286E-01
  3.855756E-01
  3.832694E-01
  3.833029E-01
  3.822791E-01
  3.842116E-01
  3.845168E-01
  3.860567E-01
  3.840058E-01
  3.826679E-01
  3.795302E-01
  3.799471E-01
  3.801950E-01
  3.833585E-01
  3.846095E-01
  3.877147E-01
  3.885525E-01
  3.903563E-01
  3.882941E-01
  3.868140E-01
  3.839319E-01
  3.856705E-01
  3.883804E-01
  3.941230E-01
  3.959760E-01
  3.961643E-01
  3.912096E-01
  3.872899E-01
  3.823334E-01
  3.810073E-01
  3.793158E-01
  3.813858E-01
  3.803023E-01
  3.885838E-01
  3.909697E-01
  3.945326E-01
  3.888259E-01
  3.859305E-01
  3.791958E-01
  3.801950E-01
  3.792261E-01
  3.846908E-01
  3.853870E-01
  3.899209E-01
  3.879712E-01
  3.895806E-01
  3.858181E-01
  3.875440E-01
  3.855768E-01
  3.894257E-01
  3.884562E-01
  3.916390E-01
  3.887933E-01
  3.899305E-01
  3.856364E-01
  3.861399E-01
  3.820495E-01
  3.833078E-01
  3.801794E-01
  3.822812E-01
  3.799147E-01
  3.828337E-01
  3.812157E-01
  3.844520E-01
  3.825547E-01
  3.853757E-01
  3.834039E-01
  3.863926E-01
  3.843478E-01
  3.868469E-01
  3.841031E-01
  3.857777E-01
  3.819817E-01
  3.828018E-01
  3.794652E-01
  3.825893E-01
  3.824435E-01
  3.875873E-01
  3.869155E-01
  3.897959E-01
  3.868472E-01
  3.883046E-01
  3.844281E-01
  3.851415E-01
  3.814214E-01
  3.839637E-01
  3.834812E-01
  3.890489E-01
  3.893757E-01
  3.927760E-01
  3.887821E-01
  3.877233E-01
  3.809680E-01
  3.796191E-01
  3.752908E-01
  3.786627E-01
  3.841241E-01
  3.897257E-01
  3.893832E-01
  3.925953E-01
  3.865967E-01
  3.844598E-01
  3.771356E-01
  3.781625E-01
  3.764109E-01
  3.824417E-01
  3.832249E-01
  3.889575E-01
  3.870329E-01
  3.891032E-01
  3.844738E-01
  3.864131E-01
  3.844183E-01
  3.899127E-01
  3.897365E-01
  3.939575E-01
  3.901486E-01
  3.906758E-01
  3.849825E-01
  3.857061E-01
  3.815259E-01
  3.838093E-01
  3.805562E-01
  3.832765E-01
  3.808834E-01
  3.855316E-01
  3.853595E-01
  3.906140E-01
  3.880219E-01
  3.889904E-01
  3.831857E-01
  3.842309E-01
  3.816121E-01
  3.865304E-01
  3.857923E-01
  3.894060E-01
  3.851516E-01
  3.858977E-01
  3.821292E-01
  3.867250E-01
  3.872206E-01
  3.928353E-01
  3.899454E-01
  3.905920E-01
  3.848091E-01
  3.856150E-01
  3.814185E-01
  3.834514E-01
  3.802845E-01
  3.840450E-01
  3.831202E-01
  3.881273E-01
  3.861978E-01
  3.886538E-01
  3.845356E-01
  3.865116E-01
  3.832357E-01
  3.859542E-01
  3.827477E-01
  3.857065E-01
  3.822573E-01
  3.870466E-01
  3.866212E-01
  3.895142E-01
  3.852823E-01
  3.849765E-01
  3.801008E-01
  3.816182E-01
  3.797976E-01
  3.840787E-01
  3.836361E-01
  3.874804E-01
  3.850826E-01
  3.868493E-01
  3.838533E-01
  3.870823E-01
  3.866645E-01
  3.917767E-01
  3.911860E-01
  3.941637E-01
  3.904107E-01
  3.903133E-01
  3.843103E-01
  3.832284E-01
  3.780808E-01
  3.795104E-01
  3.776047E-01
  3.816605E-01
  3.811592E-01
  3.857916E-01
  3.853792E-01
  3.894026E-01
  3.872884E-01
  3.892703E-01
  3.861751E-01
  3.887617E-01
  3.869104E-01
  3.899032E-01
  3.870094E-01
  3.880918E-01
  3.835881E-01
  3.845587E-01
  3.821952E-01
  3.869319E-01
  3.878662E-01
  3.929638E-01
  3.904674E-01
  3.906368E-01
  3.850503E-01
  3.852754E-01
  3.816398E-01
  3.835479E-01
  3.805688E-01
  3.827334E-01
  3.804159E-01
  3.836482E-01
  3.822357E-01
  3.858440E-01
  3.842174E-01
  3.870852E-01
  3.841739E-01
  3.855017E-01
  3.816645E-01
  3.836665E-01
  3.848954E-01
  3.862367E-01
  3.857272E-01
  3.882326E-01
  3.865411E-01
  3.865167E-01
  3.830217E-01
  3.832125E-01
  3.817803E-01
  3.846073E-01
  3.849680E-01
  3.878367E-01
  3.864478E-01
  3.869504E-01
  3.844094E-01
  3.862222E-01
  3.870315E-01
  3.920721E-01
  3.934539E-01
  3.955822E-01
  3.919713E-01
  3.896740E-01
  3.841522E-01
  3.826979E-01
  3.799392E-01
  3.817133E-01
  3.814094E-01
  3.843538E-01
  3.845289E-01
  3.883471E-01
  3.897443E-01
  3.936065E-01
  3.923944E-01
  3.919346E-01
  3.876579E-01
  3.876003E-01
  3.865597E-01
  3.896840E-01
  3.892358E-01
  3.900981E-01
  3.864702E-01
  3.858951E-01
  3.840713E-01
  3.875078E-01
  3.889041E-01
  3.920507E-01
  3.896428E-01
  3.885862E-01
  3.847262E-01
  3.851439E-01
  3.834543E-01
  3.848398E-01
  3.831974E-01
  3.849906E-01
  3.842851E-01
  3.863277E-01
  3.843767E-01
  3.847411E-01
  3.826588E-01
  3.850722E-01
  3.856061E-01
  3.888123E-01
  3.874525E-01
  3.877084E-01
  3.805439E-01
  3.821250E-01
  3.833783E-01
  3.862572E-01
  3.872630E-01
  3.888044E-01
  3.881786E-01
  3.885282E-01
  3.875862E-01
  3.884011E-01
  3.879956E-01
  3.885342E-01
  3.869046E-01
  3.863509E-01
  3.852020E-01
  3.870315E-01
  3.888975E-01
  3.924050E-01
  3.933821E-01
  3.938049E-01
  3.909516E-01
  3.883025E-01
  3.839879E-01
  3.817444E-01
  3.797255E-01
  3.810262E-01
  3.823573E-01
  3.852668E-01
  3.861019E-01
  3.876016E-01
  3.874956E-01
  3.887926E-01
  3.886060E-01
  3.897643E-01
  3.898400E-01
  3.916403E-01
  3.916725E-01
  3.917551E-01
  3.888738E-01
  3.866178E-01
  3.834808E-01
  3.831219E-01
  3.829556E-01
  3.851941E-01
  3.861297E-01
  3.876173E-01
  3.866635E-01
  3.866847E-01
  3.857838E-01
  3.869115E-01
  3.866843E-01
  3.871895E-01
  3.857352E-01
  3.857739E-01
  3.850525E-01
  3.861201E-01
  3.856410E-01
  3.861230E-01
  3.850629E-01
  3.854953E-01
  3.845074E-01
  3.844135E-01
  3.823579E-01
  3.816870E-01
  3.817830E-01
  3.816461E-01
  3.829290E-01
  3.860369E-01
  3.882765E-01
  3.897767E-01
  3.892615E-01
  3.887551E-01
  3.879932E-01
  3.886433E-01
  3.891539E-01
  3.898767E-01
  3.888634E-01
  3.874491E-01
  3.854910E-01
  3.855703E-01
  3.871016E-01
  3.905183E-01
  3.927393E-01
  3.932996E-01
  3.906606E-01
  3.872802E-01
  3.837833E-01
  3.827674E-01
  3.833768E-01
  3.860793E-01
  3.882417E-01
  3.898184E-01
  3.894143E-01
  3.892052E-01
  3.889605E-01
  3.898545E-01
  3.897975E-01
  3.895088E-01
  3.883071E-01
  3.883124E-01
  3.884356E-01
  3.890590E-01
  3.880547E-01
  3.866126E-01
  3.844016E-01
  3.837078E-01
  3.837734E-01
  3.852711E-01
  3.858673E-01
  3.860380E-01
  3.849675E-01
  3.850607E-01
  3.858251E-01
  3.878523E-01
  3.885471E-01
  3.885250E-01
  3.874695E-01
  3.879922E-01
  3.891206E-01
  3.907514E-01
  3.901169E-01
  3.883450E-01
  3.857239E-01
  3.850573E-01
  3.852841E-01
  3.863113E-01
  3.855178E-01
  3.839876E-01
  3.781417E-01
  3.796457E-01
  3.814668E-01
  3.850535E-01
  3.874195E-01
  3.899480E-01
  3.901392E-01
  3.904199E-01
  3.893615E-01
  3.897085E-01
  3.892365E-01
  3.894321E-01
  3.876553E-01
  3.864299E-01
  3.846923E-01
  3.854890E-01
  3.866937E-01
  3.895266E-01
  3.905753E-01
  3.910871E-01
  3.887991E-01
  3.865518E-01
  3.833210E-01
  3.823995E-01
  3.824261E-01
  3.854008E-01
  3.879506E-01
  3.904396E-01
  3.896345E-01
  3.881163E-01
  3.851799E-01
  3.842737E-01
  3.837740E-01
  3.856757E-01
  3.873100E-01
  3.898578E-01
  3.899299E-01
  3.889181E-01
  3.851922E-01
  3.825243E-01
  3.803506E-01
  3.812143E-01
  3.821501E-01
  3.839947E-01
  3.838912E-01
  3.842669E-01
  3.839166E-01
  3.856784E-01
  3.871996E-01
  3.895080E-01
  3.893028E-01
  3.886041E-01
  3.863776E-01
  3.862214E-01
  3.865979E-01
  3.889724E-01
  3.899047E-01
  3.906923E-01
  3.892055E-01
  3.880751E-01
  3.854729E-01
  3.836346E-01
  3.806628E-01
  3.793013E-01
  3.812409E-01
  3.817588E-01
  3.822717E-01
  3.857456E-01
  3.871100E-01
  3.889798E-01
  3.874823E-01
  3.871733E-01
  3.854477E-01
  3.866363E-01
  3.867106E-01
  3.883924E-01
  3.870404E-01
  3.863373E-01
  3.835539E-01
  3.837972E-01
  3.841852E-01
  3.879701E-01
  3.898339E-01
  3.917557E-01
  3.893101E-01
  3.871392E-01
  3.833520E-01
  3.832856E-01
  3.837895E-01
  3.877970E-01
  3.899287E-01
  3.922930E-01
  3.906564E-01
  3.896825E-01
  3.870007E-01
  3.869647E-01
  3.855318E-01
  3.859279E-01
  3.844849E-01
  3.852777E-01
  3.845835E-01
  3.855712E-01
  3.840351E-01
  3.838667E-01
  3.821116E-01
  3.831328E-01
  3.832297E-01
  3.853953E-01
  3.851175E-01
  3.859734E-01
  3.849468E-01
  3.865613E-01
  3.870385E-01
  3.889889E-01
  3.875609E-01
  3.866689E-01
  3.841655E-01
  3.853528E-01
  3.866639E-01
  3.903404E-01
  3.908847E-01
  3.914767E-01
  3.892474E-01
  3.891079E-01
  3.876071E-01
  3.878229E-01
  3.853445E-01
  3.840432E-01
  3.794111E-01
  3.815953E-01
  3.821084E-01
  3.853537E-01
  3.860154E-01
  3.883706E-01
  3.871651E-01
  3.874798E-01
  3.852212E-01
  3.859473E-01
  3.848160E-01
  3.860379E-01
  3.842313E-01
  3.844754E-01
  3.827476E-01
  3.845421E-01
  3.850053E-01
  3.883805E-01
  3.890138E-01
  3.910506E-01
  3.891273E-01
  3.881637E-01
  3.840086E-01
  3.827856E-01
  3.808931E-01
  3.835708E-01
  3.851631E-01
  3.888037E-01
  3.881646E-01
  3.879405E-01
  3.843514E-01
  3.836884E-01
  3.819716E-01
  3.840620E-01
  3.845094E-01
  3.871779E-01
  3.862611E-01
  3.862586E-01
  3.829088E-01
  3.822730E-01
  3.804847E-01
  3.824225E-01
  3.825176E-01
  3.847755E-01
  3.841071E-01
  3.857297E-01
  3.852565E-01
  3.875245E-01
  3.870766E-01
  3.880338E-01
  3.853114E-01
  3.844007E-01
  3.815866E-01
  3.826083E-01
  3.828215E-01
  3.865052E-01
  3.879060E-01
  3.910323E-01
  3.903959E-01
  3.906182E-01
  3.870081E-01
  3.851537E-01
  3.812011E-01
  3.808044E-01
  3.840899E-01
  3.846476E-01
  3.840909E-01
  3.860858E-01
  3.862128E-01
  3.874014E-01
  3.855687E-01
  3.849742E-01
  3.827922E-01
  3.834111E-01
  3.829901E-01
  3.845975E-01
  3.838411E-01
  3.843945E-01
  3.830543E-01
  3.843150E-01
  3.848677E-01
  3.882476E-01
  3.898374E-01
  3.922619E-01
  3.908980E-01
  3.895685E-01
  3.854721E-01
  3.837815E-01
  3.818080E-01
  3.834641E-01
  3.842999E-01
  3.869329E-01
  3.868205E-01
  3.877520E-01
  3.865147E-01
  3.872265E-01
  3.859389E-01
  3.860643E-01
  3.839396E-01
  3.838958E-01
  3.827243E-01
  3.841783E-01
  3.840233E-01
  3.854750E-01
  3.846187E-01
  3.854630E-01
  3.846473E-01
  3.860487E-01
  3.856636E-01
  3.868897E-01
  3.858473E-01
  3.864122E-01
  3.848685E-01
  3.848286E-01
  3.825572E-01
  3.823670E-01
  3.813942E-01
  3.837806E-01
  3.852164E-01
  3.882350E-01
  3.881623E-01
  3.887789E-01
  3.870071E-01
  3.872799E-01
  3.860171E-01
  3.867686E-01
  3.854738E-01
  3.857653E-01
  3.840973E-01
  3.852777E-01
  3.849902E-01
  3.853693E-01
  3.855382E-01
  3.867060E-01
  3.867293E-01
  3.866368E-01
  3.852625E-01
  3.845835E-01
  3.834284E-01
  3.831642E-01
  3.824364E-01
  3.830780E-01
  3.839861E-01
  3.863017E-01
  3.878349E-01
  3.894966E-01
  3.899654E-01
  3.909536E-01
  3.907372E-01
  3.899698E-01
  3.867820E-01
  3.832981E-01
  3.796608E-01
  3.786993E-01
  3.792696E-01
  3.817571E-01
  3.831614E-01
  3.839658E-01
  3.830524E-01
  3.829594E-01
  3.831178E-01
  3.849038E-01
  3.860870E-01
  3.872057E-01
  3.864676E-01
  3.856675E-01
  3.841393E-01
  3.839197E-01
  3.836622E-01
  3.844434E-01
  3.844668E-01
  3.850782E-01
  3.849628E-01
  3.855494E-01
  3.851603E-01
  3.849452E-01
  3.834815E-01
  3.826184E-01
  3.815548E-01
  3.821465E-01
  3.828741E-01
  3.845771E-01
  3.852008E-01
  3.859607E-01
  3.856379E-01
  3.858354E-01
  3.849193E-01
  3.840644E-01
  3.821146E-01
  3.813800E-01
  3.812090E-01
  3.829110E-01
  3.907905E-01
  3.894432E-01
  3.877447E-01
  3.859008E-01
  3.856049E-01
  3.852990E-01
  3.854842E-01
  3.847601E-01
  3.844709E-01
  3.836956E-01
  3.836101E-01
  3.830198E-01
  3.832265E-01
  3.834043E-01
  3.848753E-01
  3.862638E-01
  3.882432E-01
  3.893140E-01
  3.906024E-01
  3.909409E-01
  3.911800E-01
  3.896751E-01
  3.874696E-01
  3.840120E-01
  3.815394E-01
  3.798018E-01
  3.801397E-01
  3.808730E-01
  3.823634E-01
  3.830748E-01
  3.843479E-01
  3.853091E-01
  3.868685E-01
  3.871560E-01
  3.868509E-01
  3.851717E-01
  3.842975E-01
  3.838762E-01
  3.849931E-01
  3.857125E-01
  3.864589E-01
  3.860607E-01
  3.862602E-01
  3.863314E-01
  3.870935E-01
  3.865476E-01
  3.853860E-01
  3.829059E-01
  3.812790E-01
  3.802084E-01
  3.811552E-01
  3.828317E-01
  3.858572E-01
  3.881155E-01
  3.895963E-01
  3.884168E-01
  3.860263E-01
  3.824321E-01
  3.801317E-01
  3.789202E-01
  3.802990E-01
  3.828689E-01
  3.868146E-01
  3.894901E-01
  3.915071E-01
  3.905621E-01
  3.885698E-01
  3.852569E-01
  3.844834E-01
  3.841841E-01
  3.857306E-01
  3.858801E-01
  3.864339E-01
  3.851250E-01
  3.843850E-01
  3.823409E-01
  3.820157E-01
  3.820208E-01
  3.847772E-01
  3.870421E-01
  3.895319E-01
  3.892159E-01
  3.890486E-01
  3.880116E-01
  3.887624E-01
  3.881091E-01
  3.870970E-01
  3.833067E-01
  3.802846E-01
  3.775069E-01
  3.780301E-01
  3.789519E-01
  3.810021E-01
  3.809402E-01
  3.814143E-01
  3.814670E-01
  3.841420E-01
  3.865832E-01
  3.894836E-01
  3.893095E-01
  3.883367E-01
  3.853925E-01
  3.840092E-01
  3.825850E-01
  3.833022E-01
  3.835086E-01
  3.851172E-01
  3.855904E-01
  3.867654E-01
  3.858382E-01
  3.848635E-01
  3.820747E-01
  3.807960E-01
  3.798309E-01
  3.818403E-01
  3.840716E-01
  3.874787E-01
  3.883534E-01
  3.882605E-01
  3.854121E-01
  3.832967E-01
  3.805979E-01
  3.797473E-01
  3.784078E-01
  3.791682E-01
  3.805089E-01
  3.847717E-01
  3.883935E-01
  3.962136E-01
  3.930759E-01
  3.900333E-01
  3.857136E-01
  3.844226E-01
  3.827627E-01
  3.834210E-01
  3.826985E-01
  3.836674E-01
  3.828727E-01
  3.834089E-01
  3.820651E-01
  3.825455E-01
  3.821217E-01
  3.841893E-01
  3.849697E-01
  3.869387E-01
  3.863979E-01
  3.869603E-01
  3.859826E-01
  3.870029E-01
  3.863269E-01
  3.865957E-01
  3.843460E-01
  3.834480E-01
  3.815161E-01
  3.822565E-01
  3.820758E-01
  3.835634E-01
  3.832409E-01
  3.848996E-01
  3.857992E-01
  3.888419E-01
  3.894576E-01
  3.898582E-01
  3.869520E-01
  3.854257E-01
  3.832799E-01
  3.839995E-01
  3.836161E-01
  3.847803E-01
  3.843523E-01
  3.861370E-01
  3.868134E-01
  3.886188E-01
  3.869911E-01
  3.850661E-01
  3.808769E-01
  3.795047E-01
  3.787313E-01
  3.816380E-01
  3.840121E-01
  3.879141E-01
  3.889424E-01
  3.896826E-01
  3.868598E-01
  3.846074E-01
  3.808794E-01
  3.800165E-01
  3.794143E-01
  3.825828E-01
  3.859798E-01
  3.917252E-01
  3.945960E-01
  3.922735E-01
  3.901148E-01
  3.887512E-01
  3.845412E-01
  3.839580E-01
  3.821611E-01
  3.836784E-01
  3.826851E-01
  3.839367E-01
  3.822765E-01
  3.828724E-01
  3.808218E-01
  3.817336E-01
  3.810805E-01
  3.839708E-01
  3.843635E-01
  3.861187E-01
  3.837168E-01
  3.833283E-01
  3.814212E-01
  3.837446E-01
  3.842756E-01
  3.864918E-01
  3.844162E-01
  3.839304E-01
  3.814800E-01
  3.830935E-01
  3.831192E-01
  3.853221E-01
  3.838630E-01
  3.846016E-01
  3.838043E-01
  3.871308E-01
  3.884420E-01
  3.911949E-01
  3.892414E-01
  3.881482E-01
  3.839906E-01
  3.830163E-01
  3.806633E-01
  3.821063E-01
  3.820577E-01
  3.852126E-01
  3.857063E-01
  3.877266E-01
  3.854803E-01
  3.843596E-01
  3.803459E-01
  3.798925E-01
  3.787358E-01
  3.818613E-01
  3.832466E-01
  3.866767E-01
  3.860493E-01
  3.865450E-01
  3.840460E-01
  3.848615E-01
  3.841548E-01
  3.863054E-01
  3.853296E-01
  3.864759E-01
  3.856196E-01
  3.886087E-01
  3.896527E-01
  3.919864E-01
  3.883744E-01
  3.884834E-01
  3.845873E-01
  3.851936E-01
  3.818641E-01
  3.827333E-01
  3.796615E-01
  3.811444E-01
  3.790893E-01
  3.816703E-01
  3.804786E-01
  3.835537E-01
  3.824197E-01
  3.850371E-01
  3.828123E-01
  3.839371E-01
  3.805122E-01
  3.815890E-01
  3.796846E-01
  3.831961E-01
  3.832759E-01
  3.871725E-01
  3.859459E-01
  3.881162E-01
  3.860926E-01
  3.885811E-01
  3.869871E-01
  3.891474E-01
  3.868780E-01
  3.892464E-01
  3.883321E-01
  3.916872E-01
  3.895412E-01
  3.895752E-01
  3.843659E-01
  3.839586E-01
  3.810912E-01
  3.836845E-01
  3.825007E-01
  3.852743E-01
  3.840464E-01
  3.875160E-01
  3.870098E-01
  3.896315E-01
  3.860758E-01
  3.850348E-01
  3.797761E-01
  3.800994E-01
  3.782881E-01
  3.819947E-01
  3.820678E-01
  3.860668E-01
  3.854157E-01
  3.884192E-01
  3.869990E-01
  3.897608E-01
  3.884922E-01
  3.913102E-01
  3.895924E-01
  3.917779E-01
  3.898812E-01
  3.923735E-01
  3.904935E-01
  3.854887E-01
  3.841569E-01
  3.868528E-01
  3.841659E-01
  3.859078E-01
  3.830369E-01
  3.848103E-01
  3.817025E-01
  3.831032E-01
  3.800521E-01
  3.821902E-01
  3.803570E-01
  3.837753E-01
  3.828761E-01
  3.864384E-01
  3.843151E-01
  3.853454E-01
  3.806231E-01
  3.809055E-01
  3.783773E-01
  3.826238E-01
  3.831739E-01
  3.875721E-01
  3.855846E-01
  3.872792E-01
  3.846908E-01
  3.878231E-01
  3.866109E-01
  3.892540E-01
  3.860611E-01
  3.873441E-01
  3.848511E-01
  3.880415E-01
  3.865723E-01
  3.888373E-01
  3.852997E-01
  3.859175E-01
  3.820204E-01
  3.833435E-01
  3.808354E-01
  3.840021E-01
  3.834683E-01
  3.879777E-01
  3.871634E-01
  3.895646E-01
  3.856949E-01
  3.857197E-01
  3.813578E-01
  3.826709E-01