# vtk DataFile Version 2.0
title
ASCII
DATASET STRUCTURED_GRID
DIMENSIONS   64   64    1
POINTS   4096  float
  0.000000E+00  0.000000E+00  0.000000E+00
  0.000000E+00  3.906250E-01  0.000000E+00
  0.000000E+00  7.812500E-01  0.000000E+00
  0.000000E+00  1.171875E+00  0.000000E+00
  0.000000E+00  1.562500E+00  0.000000E+00
  0.000000E+00  1.953125E+00  0.000000E+00
  0.000000E+00  2.343750E+00  0.000000E+00
  0.000000E+00  2.734375E+00  0.000000E+00
  0.000000E+00  3.125000E+00  0.000000E+00
  0.000000E+00  3.515625E+00  0.000000E+00
  0.000000E+00  3.906250E+00  0.000000E+00
  0.000000E+00  4.296875E+00  0.000000E+00
  0.000000E+00  4.687500E+00  0.000000E+00
  0.000000E+00  5.078125E+00  0.000000E+00
  0.000000E+00  5.468750E+00  0.000000E+00
  0.000000E+00  5.859375E+00  0.000000E+00
  0.000000E+00  6.250000E+00  0.000000E+00
  0.000000E+00  6.640625E+00  0.000000E+00
  0.000000E+00  7.031250E+00  0.000000E+00
  0.000000E+00  7.421875E+00  0.000000E+00
  0.000000E+00  7.812500E+00  0.000000E+00
  0.000000E+00  8.203125E+00  0.000000E+00
  0.000000E+00  8.593750E+00  0.000000E+00
  0.000000E+00  8.984375E+00  0.000000E+00
  0.000000E+00  9.375000E+00  0.000000E+00
  0.000000E+00  9.765625E+00  0.000000E+00
  0.000000E+00  1.015625E+01  0.000000E+00
  0.000000E+00  1.054688E+01  0.000000E+00
  0.000000E+00  1.093750E+01  0.000000E+00
  0.000000E+00  1.132812E+01  0.000000E+00
  0.000000E+00  1.171875E+01  0.000000E+00
  0.000000E+00  1.210938E+01  0.000000E+00
  0.000000E+00  1.250000E+01  0.000000E+00
  0.000000E+00  1.289062E+01  0.000000E+00
  0.000000E+00  1.328125E+01  0.000000E+00
  0.000000E+00  1.367188E+01  0.000000E+00
  0.000000E+00  1.406250E+01  0.000000E+00
  0.000000E+00  1.445312E+01  0.000000E+00
  0.000000E+00  1.484375E+01  0.000000E+00
  0.000000E+00  1.523438E+01  0.000000E+00
  0.000000E+00  1.562500E+01  0.000000E+00
  0.000000E+00  1.601562E+01  0.000000E+00
  0.000000E+00  1.640625E+01  0.000000E+00
  0.000000E+00  1.679688E+01  0.000000E+00
  0.000000E+00  1.718750E+01  0.000000E+00
  0.000000E+00  1.757812E+01  0.000000E+00
  0.000000E+00  1.796875E+01  0.000000E+00
  0.000000E+00  1.835938E+01  0.000000E+00
  0.000000E+00  1.875000E+01  0.000000E+00
  0.000000E+00  1.914062E+01  0.000000E+00
  0.000000E+00  1.953125E+01  0.000000E+00
  0.000000E+00  1.992188E+01  0.000000E+00
  0.000000E+00  2.031250E+01  0.000000E+00
  0.000000E+00  2.070312E+01  0.000000E+00
  0.000000E+00  2.109375E+01  0.000000E+00
  0.000000E+00  2.148438E+01  0.000000E+00
  0.000000E+00  2.187500E+01  0.000000E+00
  0.000000E+00  2.226562E+01  0.000000E+00
  0.000000E+00  2.265625E+01  0.000000E+00
  0.000000E+00  2.304688E+01  0.000000E+00
  0.000000E+00  2.343750E+01  0.000000E+00
  0.000000E+00  2.382812E+01  0.000000E+00
  0.000000E+00  2.421875E+01  0.000000E+00
  0.000000E+00  2.460938E+01  0.000000E+00
  3.906250E-01  0.000000E+00  0.000000E+00
  3.906250E-01  3.906250E-01  0.000000E+00
  3.906250E-01  7.812500E-01  0.000000E+00
  3.906250E-01  1.171875E+00  0.000000E+00
  3.906250E-01  1.562500E+00  0.000000E+00
  3.906250E-01  1.953125E+00  0.000000E+00
  3.906250E-01  2.343750E+00  0.000000E+00
  3.906250E-01  2.734375E+00  0.000000E+00
  3.906250E-01  3.125000E+00  0.000000E+00
  3.906250E-01  3.515625E+00  0.000000E+00
  3.906250E-01  3.906250E+00  0.000000E+00
  3.906250E-01  4.296875E+00  0.000000E+00
  3.906250E-01  4.687500E+00  0.000000E+00
  3.906250E-01  5.078125E+00  0.000000E+00
  3.906250E-01  5.468750E+00  0.000000E+00
  3.906250E-01  5.859375E+00  0.000000E+00
  3.906250E-01  6.250000E+00  0.000000E+00
  3.906250E-01  6.640625E+00  0.000000E+00
  3.906250E-01  7.031250E+00  0.000000E+00
  3.906250E-01  7.421875E+00  0.000000E+00
  3.906250E-01  7.812500E+00  0.000000E+00
  3.906250E-01  8.203125E+00  0.000000E+00
  3.906250E-01  8.593750E+00  0.000000E+00
  3.906250E-01  8.984375E+00  0.000000E+00
  3.906250E-01  9.375000E+00  0.000000E+00
  3.906250E-01  9.765625E+00  0.000000E+00
  3.906250E-01  1.015625E+01  0.000000E+00
  3.906250E-01  1.054688E+01  0.000000E+00
  3.906250E-01  1.093750E+01  0.000000E+00
  3.906250E-01  1.132812E+01  0.000000E+00
  3.906250E-01  1.171875E+01  0.000000E+00
  3.906250E-01  1.210938E+01  0.000000E+00
  3.906250E-01  1.250000E+01  0.000000E+00
  3.906250E-01  1.289062E+01  0.000000E+00
  3.906250E-01  1.328125E+01  0.000000E+00
  3.906250E-01  1.367188E+01  0.000000E+00
  3.906250E-01  1.406250E+01  0.000000E+00
  3.906250E-01  1.445312E+01  0.000000E+00
  3.906250E-01  1.484375E+01  0.000000E+00
  3.906250E-01  1.523438E+01  0.000000E+00
  3.906250E-01  1.562500E+01  0.000000E+00
  3.906250E-01  1.601562E+01  0.000000E+00
  3.906250E-01  1.640625E+01  0.000000E+00
  3.906250E-01  1.679688E+01  0.000000E+00
  3.906250E-01  1.718750E+01  0.000000E+00
  3.906250E-01  1.757812E+01  0.000000E+00
  3.906250E-01  1.796875E+01  0.000000E+00
  3.906250E-01  1.835938E+01  0.000000E+00
  3.906250E-01  1.875000E+01  0.000000E+00
  3.906250E-01  1.914062E+01  0.000000E+00
  3.906250E-01  1.953125E+01  0.000000E+00
  3.906250E-01  1.992188E+01  0.000000E+00
  3.906250E-01  2.031250E+01  0.000000E+00
  3.906250E-01  2.070312E+01  0.000000E+00
  3.906250E-01  2.109375E+01  0.000000E+00
  3.906250E-01  2.148438E+01  0.000000E+00
  3.906250E-01  2.187500E+01  0.000000E+00
  3.906250E-01  2.226562E+01  0.000000E+00
  3.906250E-01  2.265625E+01  0.000000E+00
  3.906250E-01  2.304688E+01  0.000000E+00
  3.906250E-01  2.343750E+01  0.000000E+00
  3.906250E-01  2.382812E+01  0.000000E+00
  3.906250E-01  2.421875E+01  0.000000E+00
  3.906250E-01  2.460938E+01  0.000000E+00
  7.812500E-01  0.000000E+00  0.000000E+00
  7.812500E-01  3.906250E-01  0.000000E+00
  7.812500E-01  7.812500E-01  0.000000E+00
  7.812500E-01  1.171875E+00  0.000000E+00
  7.812500E-01  1.562500E+00  0.000000E+00
  7.812500E-01  1.953125E+00  0.000000E+00
  7.812500E-01  2.343750E+00  0.000000E+00
  7.812500E-01  2.734375E+00  0.000000E+00
  7.812500E-01  3.125000E+00  0.000000E+00
  7.812500E-01  3.515625E+00  0.000000E+00
  7.812500E-01  3.906250E+00  0.000000E+00
  7.812500E-01  4.296875E+00  0.000000E+00
  7.812500E-01  4.687500E+00  0.000000E+00
  7.812500E-01  5.078125E+00  0.000000E+00
  7.812500E-01  5.468750E+00  0.000000E+00
  7.812500E-01  5.859375E+00  0.000000E+00
  7.812500E-01  6.250000E+00  0.000000E+00
  7.812500E-01  6.640625E+00  0.000000E+00
  7.812500E-01  7.031250E+00  0.000000E+00
  7.812500E-01  7.421875E+00  0.000000E+00
  7.812500E-01  7.812500E+00  0.000000E+00
  7.812500E-01  8.203125E+00  0.000000E+00
  7.812500E-01  8.593750E+00  0.000000E+00
  7.812500E-01  8.984375E+00  0.000000E+00
  7.812500E-01  9.375000E+00  0.000000E+00
  7.812500E-01  9.765625E+00  0.000000E+00
  7.812500E-01  1.015625E+01  0.000000E+00
  7.812500E-01  1.054688E+01  0.000000E+00
  7.812500E-01  1.093750E+01  0.000000E+00
  7.812500E-01  1.132812E+01  0.000000E+00
  7.812500E-01  1.171875E+01  0.000000E+00
  7.812500E-01  1.210938E+01  0.000000E+00
  7.812500E-01  1.250000E+01  0.000000E+00
  7.812500E-01  1.289062E+01  0.000000E+00
  7.812500E-01  1.328125E+01  0.000000E+00
  7.812500E-01  1.367188E+01  0.000000E+00
  7.812500E-01  1.406250E+01  0.000000E+00
  7.812500E-01  1.445312E+01  0.000000E+00
  7.812500E-01  1.484375E+01  0.000000E+00
  7.812500E-01  1.523438E+01  0.000000E+00
  7.812500E-01  1.562500E+01  0.000000E+00
  7.812500E-01  1.601562E+01  0.000000E+00
  7.812500E-01  1.640625E+01  0.000000E+00
  7.812500E-01  1.679688E+01  0.000000E+00
  7.812500E-01  1.718750E+01  0.000000E+00
  7.812500E-01  1.757812E+01  0.000000E+00
  7.812500E-01  1.796875E+01  0.000000E+00
  7.812500E-01  1.835938E+01  0.000000E+00
  7.812500E-01  1.875000E+01  0.000000E+00
  7.812500E-01  1.914062E+01  0.000000E+00
  7.812500E-01  1.953125E+01  0.000000E+00
  7.812500E-01  1.992188E+01  0.000000E+00
  7.812500E-01  2.031250E+01  0.000000E+00
  7.812500E-01  2.070312E+01  0.000000E+00
  7.812500E-01  2.109375E+01  0.000000E+00
  7.812500E-01  2.148438E+01  0.000000E+00
  7.812500E-01  2.187500E+01  0.000000E+00
  7.812500E-01  2.226562E+01  0.000000E+00
  7.812500E-01  2.265625E+01  0.000000E+00
  7.812500E-01  2.304688E+01  0.000000E+00
  7.812500E-01  2.343750E+01  0.000000E+00
  7.812500E-01  2.382812E+01  0.000000E+00
  7.812500E-01  2.421875E+01  0.000000E+00
  7.812500E-01  2.460938E+01  0.000000E+00
  1.171875E+00  0.000000E+00  0.000000E+00
  1.171875E+00  3.906250E-01  0.000000E+00
  1.171875E+00  7.812500E-01  0.000000E+00
  1.171875E+00  1.171875E+00  0.000000E+00
  1.171875E+00  1.562500E+00  0.000000E+00
  1.171875E+00  1.953125E+00  0.000000E+00
  1.171875E+00  2.343750E+00  0.000000E+00
  1.171875E+00  2.734375E+00  0.000000E+00
  1.171875E+00  3.125000E+00  0.000000E+00
  1.171875E+00  3.515625E+00  0.000000E+00
  1.171875E+00  3.906250E+00  0.000000E+00
  1.171875E+00  4.296875E+00  0.000000E+00
  1.171875E+00  4.687500E+00  0.000000E+00
  1.171875E+00  5.078125E+00  0.000000E+00
  1.171875E+00  5.468750E+00  0.000000E+00
  1.171875E+00  5.859375E+00  0.000000E+00
  1.171875E+00  6.250000E+00  0.000000E+00
  1.171875E+00  6.640625E+00  0.000000E+00
  1.171875E+00  7.031250E+00  0.000000E+00
  1.171875E+00  7.421875E+00  0.000000E+00
  1.171875E+00  7.812500E+00  0.000000E+00
  1.171875E+00  8.203125E+00  0.000000E+00
  1.171875E+00  8.593750E+00  0.000000E+00
  1.171875E+00  8.984375E+00  0.000000E+00
  1.171875E+00  9.375000E+00  0.000000E+00
  1.171875E+00  9.765625E+00  0.000000E+00
  1.171875E+00  1.015625E+01  0.000000E+00
  1.171875E+00  1.054688E+01  0.000000E+00
  1.171875E+00  1.093750E+01  0.000000E+00
  1.171875E+00  1.132812E+01  0.000000E+00
  1.171875E+00  1.171875E+01  0.000000E+00
  1.171875E+00  1.210938E+01  0.000000E+00
  1.171875E+00  1.250000E+01  0.000000E+00
  1.171875E+00  1.289062E+01  0.000000E+00
  1.171875E+00  1.328125E+01  0.000000E+00
  1.171875E+00  1.367188E+01  0.000000E+00
  1.171875E+00  1.406250E+01  0.000000E+00
  1.171875E+00  1.445312E+01  0.000000E+00
[...]
POINT_DATA   4096
SCALARS CON  float  1
LOOKUP_TABLE default
  4.612973E-01
  4.583140E-01
  4.627403E-01
  4.637372E-01
  4.654186E-01
  4.570557E-01
  4.546970E-01
  4.545777E-01
  4.634413E-01
  4.637180E-01
  4.625597E-01
  4.562486E-01
  4.583202E-01
  4.571862E-01
  4.595722E-01
  4.556941E-01
  4.577160E-01
  4.584267E-01
  4.642155E-01
  4.613051E-01
  4.605454E-01
  4.556836E-01
  4.566390E-01
  4.530473E-01
  4.550584E-01
  4.533139E-01
  4.553394E-01
  4.523566E-01
  4.576954E-01
  4.613499E-01
  4.666017E-01
  4.597968E-01
  4.549650E-01
  4.514963E-01
  4.602603E-01
  4.626272E-01
  4.623218E-01
  4.554556E-01
  4.563351E-01
  4.526186E-01
  4.539789E-01
  4.540640E-01
  4.579392E-01
  4.525573E-01
  4.543230E-01
  4.559870E-01
  4.582777E-01
  4.515752E-01
  4.569195E-01
  4.639452E-01
  4.671386E-01
  4.560499E-01
  4.542455E-01
  4.543513E-01
  4.587098E-01
  4.592237E-01
  4.681921E-01
  4.703051E-01
  4.704794E-01
  4.635697E-01
  4.647614E-01
  4.630325E-01
  4.645887E-01
  4.604274E-01
  4.605992E-01
  4.586114E-01
  4.658559E-01
  4.712359E-01
  4.727675E-01
  4.619770E-01
  4.547904E-01
  4.532421E-01
  4.615502E-01
  4.622342E-01
  4.592738E-01
  4.543149E-01
  4.589924E-01
  4.609896E-01
  4.615668E-01
  4.559674E-01
  4.565972E-01
  4.589399E-01
  4.665948E-01
  4.673004E-01
  4.655166E-01
  4.566712E-01
  4.524934E-01
  4.499052E-01
  4.550724E-01
  4.569904E-01
  4.592051E-01
  4.561763E-01
  4.587170E-01
  4.609437E-01
  4.648591E-01
  4.595387E-01
  4.560023E-01
  4.542265E-01
  4.596060E-01
  4.587811E-01
  4.581343E-01
  4.551237E-01
  4.567424E-01
  4.542576E-01
  4.553207E-01
  4.532379E-01
  4.528336E-01
  4.480791E-01
  4.495770E-01
  4.512408E-01
  4.551926E-01
  4.540761E-01
  4.620775E-01
  4.708289E-01
  4.728032E-01
  4.599075E-01
  4.542740E-01
  4.542862E-01
  4.602113E-01
  4.628659E-01
  4.690764E-01
  4.687430E-01
  4.670017E-01
  4.597549E-01
  4.584963E-01
  4.583751E-01
  4.631036E-01
  4.614808E-01
  4.535633E-01
  4.572985E-01
  4.675220E-01
  4.730141E-01
  4.702601E-01
  4.596349E-01
  4.558949E-01
  4.568919E-01
  4.610054E-01
  4.599246E-01
  4.592744E-01
  4.584020E-01
  4.612600E-01
  4.616070E-01
  4.621509E-01
  4.589577E-01
  4.591859E-01
  4.607341E-01
  4.648361E-01
  4.643802E-01
  4.635279E-01
  4.588292E-01
  4.556440E-01
  4.526550E-01
  4.552033E-01
  4.562498E-01
  4.563773E-01
  4.533108E-01
  4.554162E-01
  4.573133E-01
  4.580609E-01
  4.534159E-01
  4.524591E-01
  4.543886E-01
  4.605600E-01
  4.613390E-01
  4.602567E-01
  4.573645E-01
  4.577008E-01
  4.552948E-01
  4.551909E-01
  4.539530E-01
  4.527615E-01
  4.470738E-01
  4.458399E-01
  4.484745E-01
  4.558434E-01
  4.602388E-01
  4.678675E-01
  4.729234E-01
  4.707397E-01
  4.590446E-01
  4.546700E-01
  4.561306E-01
  4.607225E-01
  4.625280E-01
  4.674621E-01
  4.695593E-01
  4.681661E-01
  4.585441E-01
  4.520914E-01
  4.502855E-01
  4.532265E-01
  4.522134E-01
  4.522593E-01
  4.572816E-01
  4.674830E-01
  4.729776E-01
  4.657668E-01
  4.546639E-01
  4.510644E-01
  4.541690E-01
  4.575543E-01
  4.590546E-01
  4.596605E-01
  4.617916E-01
  4.646295E-01
  4.648602E-01
  4.611145E-01
  4.575711E-01
  4.579191E-01
  4.610050E-01
  4.625829E-01
  4.617994E-01
  4.603637E-01
  4.597091E-01
  4.595111E-01
  4.606229E-01
  4.621530E-01
  4.614069E-01
  4.579507E-01
  4.548704E-01
  4.533580E-01
  4.539100E-01
  4.559437E-01
  4.577262E-01
  4.583505E-01
  4.590521E-01
  4.587150E-01
  4.570680E-01
  4.560724E-01
  4.562044E-01
  4.565616E-01
  4.594975E-01
  4.624125E-01
  4.590175E-01
  4.525626E-01
  4.514882E-01
  4.537399E-01
  4.553683E-01
  4.570502E-01
  4.591306E-01
  4.618403E-01
  4.651929E-01
  4.635372E-01
  4.564831E-01
  4.528063E-01
  4.575946E-01
  4.651427E-01
  4.693015E-01
  4.700546E-01
  4.699517E-01
  4.664920E-01
  4.584340E-01
  4.519732E-01
  4.523876E-01
  4.544283E-01
  4.532854E-01
  4.496608E-01
  4.599745E-01
  4.651834E-01
  4.697924E-01
  4.596124E-01
  4.539200E-01
  4.510478E-01
  4.563364E-01
  4.543908E-01
  4.583175E-01
  4.592665E-01
  4.646274E-01
  4.618492E-01
  4.626110E-01
  4.586207E-01
  4.608486E-01
  4.593266E-01
  4.636104E-01
  4.605892E-01
  4.605430E-01
  4.571036E-01
  4.622228E-01
  4.615689E-01
  4.628695E-01
  4.582502E-01
  4.597832E-01
  4.558866E-01
  4.563992E-01
  4.514408E-01
  4.526091E-01
  4.521040E-01
  4.589368E-01
  4.575221E-01
  4.582967E-01
  4.559565E-01
  4.608340E-01
  4.578352E-01
  4.566217E-01
  4.521733E-01
  4.581230E-01
  4.588747E-01
  4.585583E-01
  4.513560E-01
  4.551225E-01
  4.573982E-01
  4.628870E-01
  4.596757E-01
  4.584565E-01
  4.528008E-01
  4.572173E-01
  4.570025E-01
  4.572087E-01
  4.520358E-01
  4.572912E-01
  4.593366E-01
  4.636366E-01
  4.621046E-01
  4.673246E-01
  4.637790E-01
  4.598231E-01
  4.517438E-01
  4.523552E-01
  4.473096E-01
  4.483809E-01
  4.560925E-01
  4.639426E-01
  4.625428E-01
  4.670676E-01
  4.583317E-01
  4.556236E-01
  4.481118E-01
  4.511084E-01
  4.481414E-01
  4.556959E-01
  4.552285E-01
  4.613186E-01
  4.589578E-01
  4.632071E-01
  4.570152E-01
  4.588523E-01
  4.551171E-01
  4.619423E-01
  4.611482E-01
  4.656636E-01
  4.598172E-01
  4.629892E-01
  4.580907E-01
  4.587489E-01
  4.515891E-01
  4.559901E-01
  4.551244E-01
  4.609697E-01
  4.539366E-01
  4.542748E-01
  4.545419E-01
  4.673769E-01
  4.640677E-01
  4.601424E-01
  4.507010E-01
  4.562455E-01
  4.548789E-01
  4.577112E-01
  4.528428E-01
  4.615078E-01
  4.606522E-01
  4.577428E-01
  4.466884E-01
  4.564300E-01
  4.640076E-01
  4.726418E-01
  4.644140E-01
  4.590828E-01
  4.480022E-01
  4.544897E-01
  4.567840E-01
  4.601753E-01
  4.515351E-01
  4.558979E-01
  4.556479E-01
  4.604156E-01
  4.556107E-01
  4.602737E-01
  4.560267E-01
  4.591007E-01
  4.560773E-01
  4.602823E-01
  4.535080E-01
  4.566353E-01
  4.585960E-01
  4.624634E-01
  4.595191E-01
  4.601330E-01
  4.556930E-01
  4.549253E-01
  4.522304E-01
  4.528242E-01
  4.493279E-01
  4.531210E-01
  4.555921E-01
  4.600610E-01
  4.574982E-01
  4.573992E-01
  4.545377E-01
  4.567734E-01
  4.558343E-01
  4.604634E-01
  4.623787E-01
  4.653118E-01
  4.614079E-01
  4.623161E-01
  4.585366E-01
  4.530715E-01
  4.432323E-01
  4.448620E-01
  4.495147E-01
  4.578516E-01
  4.565203E-01
  4.548180E-01
  4.548342E-01
  4.650270E-01
  4.642612E-01
  4.573306E-01
  4.508578E-01
  4.581751E-01
  4.616502E-01
  4.623888E-01
  4.579146E-01
  4.604262E-01
  4.581343E-01
  4.547342E-01
  4.483835E-01
  4.541522E-01
  4.617586E-01
  4.706867E-01
  4.685172E-01
  4.626979E-01
  4.525958E-01
  4.546079E-01
  4.572929E-01
  4.589913E-01
  4.540241E-01
  4.555406E-01
  4.532726E-01
  4.526335E-01
  4.504437E-01
  4.552411E-01
  4.556917E-01
  4.605022E-01
  4.623862E-01
  4.632703E-01
  4.560058E-01
  4.566774E-01
  4.598272E-01
  4.566073E-01
  4.564924E-01
  4.582824E-01
  4.588787E-01
  4.582157E-01
  4.583700E-01
  4.568729E-01
  4.547947E-01
  4.547862E-01
  4.573115E-01
  4.593836E-01
  4.598323E-01
  4.571905E-01
  4.548781E-01
  4.560661E-01
  4.601404E-01
  4.643152E-01
  4.685697E-01
  4.688100E-01
  4.643636E-01
  4.607047E-01
  4.603259E-01
  4.565751E-01
  4.499662E-01
  4.471979E-01
  4.519829E-01
  4.591422E-01
  4.611989E-01
  4.573976E-01
  4.591769E-01
  4.678158E-01
  4.704753E-01
  4.617306E-01
  4.542260E-01
  4.561948E-01
  4.629124E-01
  4.645026E-01
  4.620985E-01
  4.621351E-01
  4.636118E-01
  4.589142E-01
  4.530135E-01
  4.547072E-01
  4.619397E-01
  4.664064E-01
  4.670536E-01
  4.630016E-01
  4.574785E-01
  4.564574E-01
  4.589601E-01
  4.577108E-01
  4.554107E-01
  4.563421E-01
  4.585061E-01
  4.577456E-01
  4.559280E-01
  4.537226E-01
  4.536213E-01
  4.584283E-01
  4.649962E-01
  4.658554E-01
  4.636892E-01
  4.620072E-01
  4.515378E-01
  4.514402E-01
  4.539456E-01
  4.599024E-01
  4.604810E-01
  4.629931E-01
  4.652799E-01
  4.665520E-01
  4.609811E-01
  4.593719E-01
  4.605149E-01
  4.637191E-01
  4.600854E-01
  4.570579E-01
  4.568721E-01
  4.636033E-01
  4.669728E-01
  4.696623E-01
  4.693928E-01
  4.685889E-01
  4.617888E-01
  4.594834E-01
  4.599972E-01
  4.606316E-01
  4.548807E-01
  4.531545E-01
  4.539333E-01
  4.594403E-01
  4.608118E-01
  4.595407E-01
  4.574983E-01
  4.636632E-01
  4.660316E-01
  4.636459E-01
  4.596873E-01
  4.641884E-01
  4.670453E-01
  4.658826E-01
  4.593968E-01
  4.582989E-01
  4.585131E-01
  4.603144E-01
  4.575453E-01
  4.564686E-01
  4.551716E-01
  4.582379E-01
  4.600287E-01
  4.618436E-01
  4.589531E-01
  4.597295E-01
  4.599888E-01
  4.601252E-01
  4.567102E-01
  4.572891E-01
  4.576927E-01
  4.608474E-01
  4.605129E-01
  4.591189E-01
  4.548400E-01
  4.562373E-01
  4.564550E-01
  4.559251E-01
  4.534120E-01
  4.543934E-01
  4.516827E-01
  4.510283E-01
  4.551143E-01
  4.637248E-01
  4.628539E-01
  4.619722E-01
  4.600306E-01
  4.623380E-01
  4.606104E-01
  4.621249E-01
  4.613788E-01
  4.636379E-01
  4.612828E-01
  4.609837E-01
  4.589146E-01
  4.618007E-01
  4.603911E-01
  4.617998E-01
  4.631568E-01
  4.666190E-01
  4.600975E-01
  4.555729E-01
  4.543435E-01
  4.595364E-01
  4.596255E-01
  4.614257E-01
  4.603744E-01
  4.628019E-01
  4.605176E-01
  4.594042E-01
  4.575728E-01
  4.632475E-01
  4.649881E-01
  4.649928E-01
  4.599402E-01
  4.615552E-01
  4.624215E-01
  4.625676E-01
  4.564313E-01
  4.567813E-01
  4.569657E-01
  4.589520E-01
  4.572053E-01
  4.594402E-01
  4.569133E-01
  4.553089E-01
  4.517426E-01
  4.538330E-01
  4.545412E-01
  4.605912E-01
  4.632092E-01
  4.638743E-01
  4.574761E-01
  4.570408E-01
  4.599745E-01
  4.684736E-01
  4.683037E-01
  4.635849E-01
  4.546539E-01
  4.537291E-01
  4.522315E-01
  4.539603E-01
  4.544730E-01
  4.570830E-01
  4.513511E-01
  4.514611E-01
  4.558873E-01
  4.604283E-01
  4.594012E-01
  4.570056E-01
  4.584647E-01
  4.611661E-01
  4.612396E-01
  4.606684E-01
  4.614577E-01
  4.621321E-01
  4.602953E-01
  4.579410E-01
  4.576570E-01
  4.574896E-01
  4.546736E-01
  4.533727E-01
  4.572251E-01
  4.613344E-01
  4.594127E-01
  4.552201E-01
  4.540389E-01
  4.546324E-01
  4.555523E-01
  4.585265E-01
  4.615150E-01
  4.621939E-01
  4.607868E-01
  4.576252E-01
  4.540214E-01
  4.535247E-01
  4.553671E-01
  4.565578E-01
  4.577943E-01
  4.613898E-01
  4.637221E-01
  4.611260E-01
  4.562836E-01
  4.523293E-01
  4.495074E-01
  4.515483E-01
  4.580546E-01
  4.614287E-01
  4.585059E-01
  4.538714E-01
  4.509209E-01
  4.514258E-01
  4.556291E-01
  4.614360E-01
  4.644318E-01
  4.628308E-01
  4.589165E-01
  4.568057E-01
  4.588338E-01
  4.640326E-01
  4.670475E-01
  4.646083E-01
  4.593345E-01
  4.565187E-01
  4.564643E-01
  4.560640E-01
  4.544912E-01
  4.530776E-01
  4.547582E-01
  4.528795E-01
  4.543926E-01
  4.575021E-01
  4.583818E-01
  4.579692E-01
  4.590948E-01
  4.594773E-01
  4.585972E-01
  4.577119E-01
  4.578335E-01
  4.589180E-01
  4.603319E-01
  4.591204E-01
  4.562103E-01
  4.542681E-01
  4.542449E-01
  4.565451E-01
  4.623447E-01
  4.664498E-01
  4.641776E-01
  4.587234E-01
  4.558141E-01
  4.548190E-01
  4.552502E-01
  4.586109E-01
  4.643409E-01
  4.671415E-01
  4.649166E-01
  4.600743E-01
  4.566928E-01
  4.558353E-01
  4.565107E-01
  4.557802E-01
  4.541714E-01
  4.548156E-01
  4.581828E-01
  4.596000E-01
  4.584464E-01
  4.558862E-01
  4.520158E-01
  4.502280E-01
  4.554831E-01
  4.624804E-01
  4.641198E-01
  4.606038E-01
  4.568775E-01
  4.563689E-01
  4.604247E-01
  4.645258E-01
  4.637737E-01
  4.588607E-01
  4.554771E-01
  4.557775E-01
  4.590958E-01
  4.629132E-01
  4.646433E-01
  4.622698E-01
  4.587754E-01
  4.588595E-01
  4.631700E-01
  4.652009E-01
  4.622171E-01
  4.577924E-01
  4.531545E-01
  4.561355E-01
  4.542190E-01
  4.566589E-01
  4.570542E-01
  4.613699E-01
  4.626066E-01
  4.618726E-01
  4.552516E-01
  4.555990E-01
  4.573041E-01
  4.613225E-01
  4.587918E-01
  4.567823E-01
  4.539787E-01
  4.582852E-01
  4.610298E-01
  4.657833E-01
  4.665686E-01
  4.680881E-01
  4.638215E-01
  4.619165E-01
  4.575167E-01
  4.548499E-01
  4.498893E-01
  4.535134E-01
  4.589087E-01
  4.650711E-01
  4.632539E-01
  4.612080E-01
  4.559187E-01
  4.563355E-01
  4.559954E-01
  4.575625E-01
  4.560624E-01
  4.592599E-01
  4.590773E-01
  4.598162E-01
  4.573391E-01
  4.566610E-01
  4.509974E-01
  4.515335E-01
  4.542668E-01
  4.584105E-01
  4.569688E-01
  4.602202E-01
  4.609761E-01
  4.632768E-01
  4.632649E-01
  4.648458E-01
  4.587682E-01
  4.547677E-01
  4.520714E-01
  4.543660E-01
  4.526325E-01
  4.548516E-01
  4.570512E-01
  4.620662E-01
  4.611358E-01
  4.624420E-01
  4.622849E-01
  4.620168E-01
  4.540370E-01
  4.521426E-01
  4.573643E-01
  4.597953E-01
  4.573108E-01
  4.606498E-01
  4.605077E-01
  4.622698E-01
  4.582857E-01
  4.554812E-01
  4.509766E-01
  4.550245E-01
  4.565469E-01
  4.598311E-01
  4.581029E-01
  4.576294E-01
  4.531160E-01
  4.564171E-01
  4.591662E-01
  4.639324E-01
  4.632714E-01
  4.654282E-01
  4.620667E-01
  4.607801E-01
  4.563876E-01
  4.562534E-01
  4.525374E-01
  4.541692E-01
  4.553834E-01
  4.605105E-01
  4.592938E-01
  4.598510E-01
  4.579447E-01
  4.623372E-01
  4.631258E-01
  4.633855E-01
  4.571831E-01
  4.566268E-01
  4.553225E-01
  4.574233E-01
  4.558913E-01
  4.597713E-01
  4.591221E-01
  4.591595E-01
  4.554845E-01
  4.560987E-01
  4.539935E-01
  4.582649E-01
  4.590354E-01
  4.602444E-01
  4.575130E-01
  4.588993E-01
  4.543592E-01
  4.531749E-01
  4.518960E-01
  4.557795E-01
  4.548510E-01
  4.573563E-01
  4.573136E-01
  4.610287E-01
  4.605019E-01
  4.629404E-01
  4.607284E-01
  4.597432E-01
  4.541587E-01
  4.560077E-01
  4.568606E-01
  4.590095E-01
  4.572808E-01
  4.582344E-01
  4.586843E-01
  4.597953E-01
  4.592170E-01
  4.579949E-01
  4.552119E-01
  4.556511E-01
  4.560033E-01
  4.568961E-01
  4.554535E-01
  4.544913E-01
  4.539949E-01
  4.571840E-01
  4.586018E-01
  4.579154E-01
  4.554338E-01
  4.574289E-01
  4.602538E-01
  4.620210E-01
  4.595834E-01
  4.574558E-01
  4.545198E-01
  4.525644E-01
  4.496549E-01
  4.510112E-01
  4.548453E-01
  4.580550E-01
  4.562582E-01
  4.572903E-01
  4.592854E-01
  4.592686E-01
  4.566051E-01
  4.582825E-01
  4.590347E-01
  4.573568E-01
  4.546187E-01
  4.568659E-01
  4.593268E-01
  4.618855E-01
  4.607927E-01
  4.565234E-01
  4.516642E-01
  4.547445E-01
  4.580359E-01
  4.571796E-01
  4.537472E-01
  4.531983E-01
  4.512028E-01
  4.521653E-01
  4.560514E-01
  4.605516E-01
  4.595967E-01
  4.582653E-01
  4.573512E-01
  4.594034E-01
  4.606719E-01
  4.608498E-01
  4.566174E-01
  4.523809E-01
  4.491887E-01
  4.523065E-01
  4.634316E-01
  4.590486E-01
  4.565334E-01
  4.549202E-01
  4.576661E-01
  4.578352E-01
  4.594202E-01
  4.589091E-01
  4.603228E-01
  4.568240E-01
  4.541543E-01
  4.524547E-01
  4.560958E-01
  4.564440E-01
  4.580099E-01
  4.589488E-01
  4.612877E-01
  4.572358E-01
  4.559202E-01
  4.584414E-01
  4.653827E-01
  4.647735E-01
  4.615856E-01
  4.579372E-01
  4.594731E-01
  4.557716E-01
  4.511737E-01
  4.494239E-01
  4.562077E-01
  4.581601E-01
  4.571158E-01
  4.557003E-01
  4.597347E-01
  4.581448E-01
  4.553240E-01
  4.538183E-01
  4.578970E-01
  4.562257E-01
  4.550150E-01
  4.568195E-01
  4.627197E-01
  4.614293E-01
  4.599071E-01
  4.572076E-01
  4.580832E-01
  4.585488E-01
  4.597383E-01
  4.544530E-01
  4.524099E-01
  4.519127E-01
  4.534724E-01
  4.527962E-01
  4.579143E-01
  4.627235E-01
  4.672155E-01
  4.648162E-01
  4.608235E-01
  4.543727E-01
  4.535171E-01
  4.522553E-01
  4.525212E-01
  4.522133E-01
  4.576642E-01
  4.612755E-01
  4.676661E-01
  4.628004E-01
  4.587835E-01
  4.537116E-01
  4.557164E-01
  4.562040E-01
  4.601658E-01
  4.606091E-01
  4.621794E-01
  4.571740E-01
  4.561650E-01
  4.548815E-01
  4.560362E-01
  4.531942E-01
  4.584712E-01
  4.644888E-01
  4.696935E-01
  4.635607E-01
  4.592842E-01
  4.583839E-01
  4.655081E-01
  4.651181E-01
  4.607618E-01
  4.528445E-01
  4.537182E-01
  4.520938E-01
  4.505420E-01
  4.494715E-01
  4.575698E-01
  4.570437E-01
  4.516022E-01
  4.470440E-01
  4.541838E-01
  4.577941E-01
  4.612101E-01
  4.616344E-01
  4.637706E-01
  4.574534E-01
  4.544075E-01
  4.531972E-01
  4.565727E-01
  4.548544E-01
  4.564695E-01
  4.551389E-01
  4.582609E-01
  4.597145E-01
  4.607978E-01
  4.535557E-01
  4.523394E-01
  4.533332E-01
  4.572382E-01
  4.557482E-01
  4.592756E-01
  4.612841E-01
  4.641979E-01
  4.595763E-01
  4.564161E-01
  4.514619E-01
  4.517943E-01
  4.486859E-01
  4.490257E-01
  4.501773E-01
  4.589479E-01
  4.639229E-01
  4.722193E-01
  4.660832E-01
  4.608057E-01
  4.577268E-01
  4.581926E-01
  4.564200E-01
  4.534659E-01
  4.526213E-01
  4.564251E-01
  4.576099E-01
  4.572682E-01
  4.565696E-01
  4.557581E-01
  4.527616E-01
  4.543465E-01
  4.603498E-01
  4.660352E-01
  4.640906E-01
  4.601481E-01
  4.587367E-01
  4.611330E-01
  4.603189E-01
  4.558966E-01
  4.511654E-01
  4.525459E-01
  4.541115E-01
  4.541454E-01
  4.557592E-01
  4.606858E-01
  4.588652E-01
  4.529021E-01
  4.517677E-01
  4.594435E-01
  4.652694E-01
  4.655326E-01
  4.620209E-01
  4.598617E-01
  4.562554E-01
  4.546964E-01
  4.562343E-01
  4.579409E-01
  4.542218E-01
  4.530856E-01
  4.573160E-01
  4.640207E-01
  4.649927E-01
  4.596491E-01
  4.508688E-01
  4.490981E-01
  4.543121E-01
  4.605656E-01
  4.602606E-01
  4.587486E-01
  4.596385E-01
  4.621873E-01
  4.591929E-01
  4.543818E-01
  4.515963E-01
  4.527495E-01
  4.523450E-01
  4.524699E-01
  4.564781E-01
  4.663613E-01
  4.726541E-01
  4.655533E-01
  4.636466E-01
  4.589566E-01
  4.572703E-01
  4.571509E-01
  4.569788E-01
  4.533619E-01
  4.526740E-01
  4.545129E-01
  4.576498E-01
  4.582541E-01
  4.579977E-01
  4.531796E-01
  4.492435E-01
  4.495531E-01
  4.549749E-01
  4.581871E-01
  4.590082E-01
  4.560225E-01
  4.538539E-01
  4.535751E-01
  4.570912E-01
  4.573756E-01
  4.553525E-01
  4.534951E-01
  4.544509E-01
  4.534898E-01
  4.557182E-01
  4.597865E-01
  4.605563E-01
  4.552102E-01
  4.549799E-01
  4.598658E-01
  4.654172E-01
  4.655817E-01
  4.630807E-01
  4.579084E-01
  4.554022E-01
  4.550025E-01
  4.565893E-01
  4.552809E-01
  4.546380E-01
  4.554881E-01
  4.598710E-01
  4.632697E-01
  4.642144E-01
  4.584815E-01
  4.522226E-01
  4.494649E-01
  4.535698E-01
  4.579087E-01
  4.595876E-01
  4.576533E-01
  4.585376E-01
  4.579122E-01
  4.544078E-01
  4.512327E-01
  4.557164E-01
  4.605758E-01
  4.613577E-01
  4.574898E-01
  4.569974E-01
  4.598452E-01
  4.647294E-01
  4.629126E-01
  4.597835E-01
  4.588829E-01
  4.568977E-01
  4.589494E-01
  4.572334E-01
  4.551288E-01
  4.515928E-01
  4.538557E-01
  4.539282E-01
  4.549497E-01
  4.536782E-01
  4.550696E-01
  4.531123E-01
  4.529416E-01
  4.504304E-01
  4.513361E-01
  4.517620E-01
  4.547856E-01
  4.523985E-01
  4.522126E-01
  4.544901E-01
  4.614942E-01
  4.629502E-01
  4.636868E-01
  4.599121E-01
  4.581470E-01
  4.570861E-01
  4.608617E-01
  4.601585E-01
  4.607015E-01
  4.612921E-01
  4.656633E-01
  4.647801E-01
  4.614833E-01
  4.534854E-01
  4.518105E-01
  4.530653E-01
  4.576057E-01
  4.585551E-01
  4.605815E-01
  4.573613E-01
  4.570408E-01
  4.590095E-01
  4.638490E-01
  4.603142E-01
  4.557973E-01
  4.510119E-01
  4.511612E-01
  4.505922E-01
  4.542227E-01
  4.542460E-01
  4.551342E-01
  4.564750E-01
  4.613855E-01
  4.592159E-01
  4.582836E-01
  4.593837E-01
  4.648126E-01
  4.651554E-01
  4.647398E-01
  4.609656E-01
  4.618137E-01
  4.618260E-01
  4.575752E-01
  4.563838E-01
  4.601080E-01
  4.551372E-01
  4.573217E-01
  4.550979E-01
  4.606300E-01
  4.562809E-01
  4.550394E-01
  4.478235E-01
  4.523878E-01
  4.529305E-01
  4.586236E-01
  4.565605E-01
  4.620767E-01
  4.577371E-01
  4.564744E-01
  4.503795E-01
  4.538658E-01
  4.487385E-01
  4.513184E-01
  4.537308E-01
  4.649261E-01
  4.630440E-01
  4.631148E-01
  4.564327E-01
  4.587508E-01
  4.573365E-01
  4.635305E-01
  4.586537E-01
  4.581048E-01
  4.543564E-01
  4.607358E-01
  4.585939E-01
  4.600302E-01
  4.536058E-01
  4.565335E-01
  4.550846E-01
  4.586132E-01
  4.531045E-01
  4.564974E-01
  4.552438E-01
  4.597324E-01
  4.560476E-01
  4.584276E-01
  4.523823E-01
  4.542028E-01
  4.525055E-01
  4.566181E-01