# vtk DataFile Version 2.0
title
ASCII
DATASET STRUCTURED_GRID
DIMENSIONS   64   64    1
POINTS   4096  float
  0.000000E+00  0.000000E+00  0.000000E+00
  0.000000E+00  3.906250E-01  0.000000E+00
  0.000000E+00  7.812500E-01  0.000000E+00
  0.000000E+00  1.171875E+00  0.000000E+00
  0.000000E+00  1.562500E+00  0.000000E+00
  0.000000E+00  1.953125E+00  0.000000E+00
  0.000000E+00  2.343750E+00  0.000000E+00
  0.000000E+00  2.734375E+00  0.000000E+00
  0.000000E+00  3.125000E+00  0.000000E+00
  0.000000E+00  3.515625E+00  0.000000E+00
  0.000000E+00  3.906250E+00  0.000000E+00
  0.000000E+00  4.296875E+00  0.000000E+00
  0.000000E+00  4.687500E+00  0.000000E+00
  0.000000E+00  5.078125E+00  0.000000E+00
  0.000000E+00  5.468750E+00  0.000000E+00
  0.000000E+00  5.859375E+00  0.000000E+00
  0.000000E+00  6.250000E+00  0.000000E+00
  0.000000E+00  6.640625E+00  0.000000E+00
  0.000000E+00  7.031250E+00  0.000000E+00
  0.000000E+00  7.421875E+00  0.000000E+00
  0.000000E+00  7.812500E+00  0.000000E+00
  0.000000E+00  8.203125E+00  0.000000E+00
  0.000000E+00  8.593750E+00  0.000000E+00
  0.000000E+00  8.984375E+00  0.000000E+00
  0.000000E+00  9.375000E+00  0.000000E+00
  0.000000E+00  9.765625E+00  0.000000E+00
  0.000000E+00  1.015625E+01  0.000000E+00
  0.000000E+00  1.054688E+01  0.000000E+00
  0.000000E+00  1.093750E+01  0.000000E+00
  0.000000E+00  1.132812E+01  0.000000E+00
  0.000000E+00  1.171875E+01  0.000000E+00
  0.000000E+00  1.210938E+01  0.000000E+00
  0.000000E+00  1.250000E+01  0.000000E+00
  0.000000E+00  1.289062E+01  0.000000E+00
  0.000000E+00  1.328125E+01  0.000000E+00
  0.000000E+00  1.367188E+01  0.000000E+00
  0.000000E+00  1.406250E+01  0.000000E+00
  0.000000E+00  1.445312E+01  0.000000E+00
  0.000000E+00  1.484375E+01  0.000000E+00
  0.000000E+00  1.523438E+01  0.000000E+00
  0.000000E+00  1.562500E+01  0.000000E+00
  0.000000E+00  1.601562E+01  0.000000E+00
  0.000000E+00  1.640625E+01  0.000000E+00
  0.000000E+00  1.679688E+01  0.000000E+00
  0.000000E+00  1.718750E+01  0.000000E+00
  0.000000E+00  1.757812E+01  0.000000E+00
  0.000000E+00  1.796875E+01  0.000000E+00
  0.000000E+00  1.835938E+01  0.000000E+00
  0.000000E+00  1.875000E+01  0.000000E+00
  0.000000E+00  1.914062E+01  0.000000E+00
  0.000000E+00  1.953125E+01  0.000000E+00
  0.000000E+00  1.992188E+01  0.000000E+00
  0.000000E+00  2.031250E+01  0.000000E+00
  0.000000E+00  2.070312E+01  0.000000E+00
  0.000000E+00  2.109375E+01  0.000000E+00
  0.000000E+00  2.148438E+01  0.000000E+00
  0.000000E+00  2.187500E+01  0.000000E+00
  0.000000E+00  2.226562E+01  0.000000E+00
  0.000000E+00  2.265625E+01  0.000000E+00
  0.000000E+00  2.304688E+01  0.000000E+00
  0.000000E+00  2.343750E+01  0.000000E+00
  0.000000E+00  2.382812E+01  0.000000E+00
  0.000000E+00  2.421875E+01  0.000000E+00
  0.000000E+00  2.460938E+01  0.000000E+00
  3.906250E-01  0.000000E+00  0.000000E+00
  3.906250E-01  3.906250E-01  0.000000E+00
  3.906250E-01  7.812500E-01  0.000000E+00
  3.906250E-01  1.171875E+00  0.000000E+00
  3.906250E-01  1.562500E+00  0.000000E+00
  3.906250E-01  1.953125E+00  0.000000E+00
  3.906250E-01  2.343750E+00  0.000000E+00
  3.906250E-01  2.734375E+00  0.000000E+00
  3.906250E-01  3.125000E+00  0.000000E+00
  3.906250E-01  3.515625E+00  0.000000E+00
  3.906250E-01  3.906250E+00  0.000000E+00
  3.906250E-01  4.296875E+00  0.000000E+00
  3.906250E-01  4.687500E+00  0.000000E+00
  3.906250E-01  5.078125E+00  0.000000E+00
  3.906250E-01  5.468750E+00  0.000000E+00
  3.906250E-01  5.859375E+00  0.000000E+00
  3.906250E-01  6.250000E+00  0.000000E+00
  3.906250E-01  6.640625E+00  0.000000E+00
  3.906250E-01  7.031250E+00  0.000000E+00
  3.906250E-01  7.421875E+00  0.000000E+00
  3.906250E-01  7.812500E+00  0.000000E+00
  3.906250E-01  8.203125E+00  0.000000E+00
  3.906250E-01  8.593750E+00  0.000000E+00
  3.906250E-01  8.984375E+00  0.000000E+00
  3.906250E-01  9.375000E+00  0.000000E+00
  3.906250E-01  9.765625E+00  0.000000E+00
  3.906250E-01  1.015625E+01  0.000000E+00
  3.906250E-01  1.054688E+01  0.000000E+00
  3.906250E-01  1.093750E+01  0.000000E+00
  3.906250E-01  1.132812E+01  0.000000E+00
  3.906250E-01  1.171875E+01  0.000000E+00
  3.906250E-01  1.210938E+01  0.000000E+00
  3.906250E-01  1.250000E+01  0.000000E+00
  3.906250E-01  1.289062E+01  0.000000E+00
  3.906250E-01  1.328125E+01  0.000000E+00
  3.906250E-01  1.367188E+01  0.000000E+00
  3.906250E-01  1.406250E+01  0.000000E+00
  3.906250E-01  1.445312E+01  0.000000E+00
  3.906250E-01  1.484375E+01  0.000000E+00
  3.906250E-01  1.523438E+01  0.000000E+00
  3.906250E-01  1.562500E+01  0.000000E+00
  3.906250E-01  1.601562E+01  0.000000E+00
  3.906250E-01  1.640625E+01  0.000000E+00
  3.906250E-01  1.679688E+01  0.000000E+00
  3.906250E-01  1.718750E+01  0.000000E+00
  3.906250E-01  1.757812E+01  0.000000E+00
  3.906250E-01  1.796875E+01  0.000000E+00
  3.906250E-01  1.835938E+01  0.000000E+00
  3.906250E-01  1.875000E+01  0.000000E+00
  3.906250E-01  1.914062E+01  0.000000E+00
  3.906250E-01  1.953125E+01  0.000000E+00
  3.906250E-01  1.992188E+01  0.000000E+00
  3.906250E-01  2.031250E+01  0.000000E+00
  3.906250E-01  2.070312E+01  0.000000E+00
  3.906250E-01  2.109375E+01  0.000000E+00
  3.906250E-01  2.148438E+01  0.000000E+00
  3.906250E-01  2.187500E+01  0.000000E+00
  3.906250E-01  2.226562E+01  0.000000E+00
  3.906250E-01  2.265625E+01  0.000000E+00
  3.906250E-01  2.304688E+01  0.000000E+00
  3.906250E-01  2.343750E+01  0.000000E+00
  3.906250E-01  2.382812E+01  0.000000E+00
  3.906250E-01  2.421875E+01  0.000000E+00
  3.906250E-01  2.460938E+01  0.000000E+00
  7.812500E-01  0.000000E+00  0.000000E+00
  7.812500E-01  3.906250E-01  0.000000E+00
  7.812500E-01  7.812500E-01  0.000000E+00
  7.812500E-01  1.171875E+00  0.000000E+00
  7.812500E-01  1.562500E+00  0.000000E+00
  7.812500E-01  1.953125E+00  0.000000E+00
  7.812500E-01  2.343750E+00  0.000000E+00
  7.812500E-01  2.734375E+00  0.000000E+00
  7.812500E-01  3.125000E+00  0.000000E+00
  7.812500E-01  3.515625E+00  0.000000E+00
  7.812500E-01  3.906250E+00  0.000000E+00
  7.812500E-01  4.296875E+00  0.000000E+00
  7.812500E-01  4.687500E+00  0.000000E+00
  7.812500E-01  5.078125E+00  0.000000E+00
  7.812500E-01  5.468750E+00  0.000000E+00
  7.812500E-01  5.859375E+00  0.000000E+00
  7.812500E-01  6.250000E+00  0.000000E+00
  7.812500E-01  6.640625E+00  0.000000E+00
  7.812500E-01  7.031250E+00  0.000000E+00
  7.812500E-01  7.421875E+00  0.000000E+00
  7.812500E-01  7.812500E+00  0.000000E+00
  7.812500E-01  8.203125E+00  0.000000E+00
  7.812500E-01  8.593750E+00  0.000000E+00
  7.812500E-01  8.984375E+00  0.000000E+00
  7.812500E-01  9.375000E+00  0.000000E+00
  7.812500E-01  9.765625E+00  0.000000E+00
  7.812500E-01  1.015625E+01  0.000000E+00
  7.812500E-01  1.054688E+01  0.000000E+00
  7.812500E-01  1.093750E+01  0.000000E+00
  7.812500E-01  1.132812E+01  0.000000E+00
  7.812500E-01  1.171875E+01  0.000000E+00
  7.812500E-01  1.210938E+01  0.000000E+00
  7.812500E-01  1.250000E+01  0.000000E+00
  7.812500E-01  1.289062E+01  0.000000E+00
  7.812500E-01  1.328125E+01  0.000000E+00
  7.812500E-01  1.367188E+01  0.000000E+00
  7.812500E-01  1.406250E+01  0.000000E+00
  7.812500E-01  1.445312E+01  0.000000E+00
  7.812500E-01  1.484375E+01  0.000000E+00
  7.812500E-01  1.523438E+01  0.000000E+00
  7.812500E-01  1.562500E+01  0.000000E+00
  7.812500E-01  1.601562E+01  0.000000E+00
  7.812500E-01  1.640625E+01  0.000000E+00
  7.812500E-01  1.679688E+01  0.000000E+00
  7.812500E-01  1.718750E+01  0.000000E+00
  7.812500E-01  1.757812E+01  0.000000E+00
  7.812500E-01  1.796875E+01  0.000000E+00
  7.812500E-01  1.835938E+01  0.000000E+00
  7.812500E-01  1.875000E+01  0.000000E+00
  7.812500E-01  1.914062E+01  0.000000E+00
  7.812500E-01  1.953125E+01  0.000000E+00
  7.812500E-01  1.992188E+01  0.000000E+00
  7.812500E-01  2.031250E+01  0.000000E+00
  7.812500E-01  2.070312E+01  0.000000E+00
  7.812500E-01  2.109375E+01  0.000000E+00
  7.812500E-01  2.148438E+01  0.000000E+00
  7.812500E-01  2.187500E+01  0.000000E+00
  7.812500E-01  2.226562E+01  0.000000E+00
  7.812500E-01  2.265625E+01  0.000000E+00
  7.812500E-01  2.304688E+01  0.000000E+00
  7.812500E-01  2.343750E+01  0.000000E+00
  7.812500E-01  2.382812E+01  0.000000E+00
  7.812500E-01  2.421875E+01  0.000000E+00
  7.812500E-01  2.460938E+01  0.000000E+00
  1.171875E+00  0.000000E+00  0.000000E+00
  1.171875E+00  3.906250E-01  0.000000E+00
  1.171875E+00  7.812500E-01  0.000000E+00
  1.171875E+00  1.171875E+00  0.000000E+00
  1.171875E+00  1.562500E+00  0.000000E+00
  1.171875E+00  1.953125E+00  0.000000E+00
  1.171875E+00  2.343750E+00  0.000000E+00
  1.171875E+00  2.734375E+00  0.000000E+00
  1.171875E+00  3.125000E+00  0.000000E+00
  1.171875E+00  3.515625E+00  0.000000E+00
  1.171875E+00  3.906250E+00  0.000000E+00
  1.171875E+00  4.296875E+00  0.000000E+00
  1.171875E+00  4.687500E+00  0.000000E+00
  1.171875E+00  5.078125E+00  0.000000E+00
  1.171875E+00  5.468750E+00  0.000000E+00
  1.171875E+00  5.859375E+00  0.000000E+00
  1.171875E+00  6.250000E+00  0.000000E+00
  1.171875E+00  6.640625E+00  0.000000E+00
  1.171875E+00  7.031250E+00  0.000000E+00
  1.171875E+00  7.421875E+00  0.000000E+00
  1.171875E+00  7.812500E+00  0.000000E+00
  1.171875E+00  8.203125E+00  0.000000E+00
  1.171875E+00  8.593750E+00  0.000000E+00
  1.171875E+00  8.984375E+00  0.000000E+00
  1.171875E+00  9.375000E+00  0.000000E+00
  1.171875E+00  9.765625E+00  0.000000E+00
  1.171875E+00  1.015625E+01  0.000000E+00
  1.171875E+00  1.054688E+01  0.000000E+00
  1.171875E+00  1.093750E+01  0.000000E+00
  1.171875E+00  1.132812E+01  0.000000E+00
  1.171875E+00  1.171875E+01  0.000000E+00
  1.171875E+00  1.210938E+01  0.000000E+00
  1.171875E+00  1.250000E+01  0.000000E+00
  1.171875E+00  1.289062E+01  0.000000E+00
  1.171875E+00  1.328125E+01  0.000000E+00
  1.171875E+00  1.367188E+01  0.000000E+00
  1.171875E+00  1.406250E+01  0.000000E+00
  1.171875E+00  1.445312E+01  0.000000E+00
[...]
POINT_DATA   4096
SCALARS CON  float  1
LOOKUP_TABLE default
  3.541006E-01
  3.540301E-01
  3.584357E-01
  3.560572E-01
  3.572797E-01
  3.528927E-01
  3.544525E-01
  3.522023E-01
  3.557752E-01
  3.538376E-01
  3.559720E-01
  3.520874E-01
  3.532603E-01
  3.500912E-01
  3.531740E-01
  3.520894E-01
  3.563895E-01
  3.549919E-01
  3.576221E-01
  3.539454E-01
  3.547258E-01
  3.502572E-01
  3.511018E-01
  3.471321E-01
  3.486224E-01
  3.457306E-01
  3.489589E-01
  3.481467E-01
  3.528118E-01
  3.517391E-01
  3.545289E-01
  3.511916E-01
  3.529651E-01
  3.504499E-01
  3.538669E-01
  3.521919E-01
  3.547860E-01
  3.511658E-01
  3.520570E-01
  3.479342E-01
  3.493742E-01
  3.461479E-01
  3.482032E-01
  3.453439E-01
  3.479953E-01
  3.465227E-01
  3.514145E-01
  3.522240E-01
  3.580276E-01
  3.569445E-01
  3.583539E-01
  3.525398E-01
  3.517983E-01
  3.480655E-01
  3.525160E-01
  3.542469E-01
  3.613599E-01
  3.612034E-01
  3.631295E-01
  3.574368E-01
  3.561702E-01
  3.505689E-01
  3.517254E-01
  3.496238E-01
  3.556549E-01
  3.565242E-01
  3.606183E-01
  3.591000E-01
  3.589688E-01
  3.538009E-01
  3.528095E-01
  3.498942E-01
  3.524455E-01
  3.521720E-01
  3.553149E-01
  3.538320E-01
  3.551322E-01
  3.523035E-01
  3.533869E-01
  3.515814E-01
  3.543995E-01
  3.539786E-01
  3.567875E-01
  3.546668E-01
  3.550410E-01
  3.512381E-01
  3.514886E-01
  3.488324E-01
  3.504629E-01
  3.487508E-01
  3.509429E-01
  3.498658E-01
  3.529206E-01
  3.524521E-01
  3.552622E-01
  3.535132E-01
  3.545924E-01
  3.515066E-01
  3.521329E-01
  3.494697E-01
  3.509912E-01
  3.492147E-01
  3.511557E-01
  3.490504E-01
  3.499967E-01
  3.467955E-01
  3.472405E-01
  3.445867E-01
  3.465360E-01
  3.460405E-01
  3.504133E-01
  3.519427E-01
  3.569272E-01
  3.565487E-01
  3.574730E-01
  3.530309E-01
  3.526771E-01
  3.510119E-01
  3.559050E-01
  3.586586E-01
  3.642172E-01
  3.631256E-01
  3.627545E-01
  3.571306E-01
  3.555537E-01
  3.516211E-01
  3.528602E-01
  3.518052E-01
  3.503510E-01
  3.547310E-01
  3.592851E-01
  3.600189E-01
  3.586450E-01
  3.545202E-01
  3.519073E-01
  3.501563E-01
  3.513845E-01
  3.525697E-01
  3.546107E-01
  3.546944E-01
  3.548456E-01
  3.534586E-01
  3.532679E-01
  3.526899E-01
  3.538645E-01
  3.543259E-01
  3.555176E-01
  3.548655E-01
  3.544008E-01
  3.523920E-01
  3.513563E-01
  3.495123E-01
  3.490395E-01
  3.479538E-01
  3.483961E-01
  3.482946E-01
  3.494726E-01
  3.494775E-01
  3.501184E-01
  3.494473E-01
  3.499632E-01
  3.499444E-01
  3.513564E-01
  3.516031E-01
  3.522090E-01
  3.509499E-01
  3.501468E-01
  3.480823E-01
  3.470296E-01
  3.450591E-01
  3.444409E-01
  3.434905E-01
  3.446348E-01
  3.460442E-01
  3.496174E-01
  3.526681E-01
  3.561567E-01
  3.568258E-01
  3.562879E-01
  3.532331E-01
  3.515135E-01
  3.508006E-01
  3.538259E-01
  3.576159E-01
  3.621011E-01
  3.629758E-01
  3.614746E-01
  3.563541E-01
  3.515796E-01
  3.468981E-01
  3.456107E-01
  3.461832E-01
  3.513790E-01
  3.564116E-01
  3.588626E-01
  3.605780E-01
  3.570561E-01
  3.533790E-01
  3.481413E-01
  3.469732E-01
  3.466769E-01
  3.501808E-01
  3.523126E-01
  3.554410E-01
  3.550586E-01
  3.550840E-01
  3.526269E-01
  3.525925E-01
  3.519655E-01
  3.543564E-01
  3.550530E-01
  3.567261E-01
  3.551408E-01
  3.545254E-01
  3.519685E-01
  3.518087E-01
  3.502763E-01
  3.507593E-01
  3.493032E-01
  3.498202E-01
  3.489601E-01
  3.506260E-01
  3.507722E-01
  3.524888E-01
  3.514846E-01
  3.514912E-01
  3.492925E-01
  3.493772E-01
  3.484730E-01
  3.501794E-01
  3.500671E-01
  3.510787E-01
  3.491365E-01
  3.484246E-01
  3.461366E-01
  3.467762E-01
  3.468125E-01
  3.496012E-01
  3.508466E-01
  3.537836E-01
  3.541456E-01
  3.552153E-01
  3.531139E-01
  3.522931E-01
  3.503369E-01
  3.521525E-01
  3.540958E-01
  3.586589E-01
  3.601002E-01
  3.608246E-01
  3.571410E-01
  3.542058E-01
  3.497695E-01
  3.485009E-01
  3.470329E-01
  3.492468E-01
  3.474178E-01
  3.541711E-01
  3.556610E-01
  3.587843E-01
  3.543308E-01
  3.525131E-01
  3.467731E-01
  3.473478E-01
  3.459242E-01
  3.503699E-01
  3.507990E-01
  3.547891E-01
  3.530898E-01
  3.547076E-01
  3.516857E-01
  3.535813E-01
  3.520604E-01
  3.555969E-01
  3.547517E-01
  3.575430E-01
  3.548064E-01
  3.554663E-01
  3.512228E-01
  3.513258E-01
  3.474446E-01
  3.484526E-01
  3.457501E-01
  3.479391E-01
  3.462519E-01
  3.491400E-01
  3.477257E-01
  3.505211E-01
  3.488149E-01
  3.514209E-01
  3.497532E-01
  3.524758E-01
  3.506892E-01
  3.528593E-01
  3.501147E-01
  3.511671E-01
  3.475509E-01
  3.484618E-01
  3.458384E-01
  3.486905E-01
  3.482351E-01
  3.525319E-01
  3.521441E-01
  3.553125E-01
  3.531341E-01
  3.544243E-01
  3.506673E-01
  3.510827E-01
  3.477443E-01
  3.500613E-01
  3.496117E-01
  3.544991E-01
  3.547501E-01
  3.578317E-01
  3.543539E-01
  3.534769E-01
  3.475331E-01
  3.465220E-01
  3.429599E-01
  3.461622E-01
  3.505003E-01
  3.554423E-01
  3.546994E-01
  3.574624E-01
  3.524691E-01
  3.511999E-01
  3.448907E-01
  3.456209E-01
  3.435714E-01
  3.486535E-01
  3.491775E-01
  3.542745E-01
  3.525247E-01
  3.545930E-01
  3.508248E-01
  3.530068E-01
  3.513427E-01
  3.561518E-01
  3.557336E-01
  3.594244E-01
  3.559489E-01
  3.563834E-01
  3.511063E-01
  3.515867E-01
  3.476074E-01
  3.495112E-01
  3.465913E-01
  3.493533E-01
  3.475898E-01
  3.518980E-01
  3.513449E-01
  3.555489E-01
  3.530845E-01
  3.544737E-01
  3.499882E-01
  3.514050E-01
  3.489070E-01
  3.527456E-01
  3.513341E-01
  3.542241E-01
  3.506717E-01
  3.520594E-01
  3.490252E-01
  3.526622E-01
  3.519768E-01
  3.563440E-01
  3.541851E-01
  3.559768E-01
  3.516592E-01
  3.524785E-01
  3.482695E-01
  3.498278E-01
  3.469831E-01
  3.504569E-01
  3.495430E-01
  3.539730E-01
  3.522857E-01
  3.546611E-01
  3.508747E-01
  3.522421E-01
  3.487086E-01
  3.508856E-01
  3.482563E-01
  3.515315E-01
  3.477931E-01
  3.523872E-01
  3.519600E-01
  3.549973E-01
  3.514592E-01
  3.516309E-01
  3.471231E-01
  3.485010E-01
  3.465726E-01
  3.504676E-01
  3.498301E-01
  3.534079E-01
  3.512256E-01
  3.532158E-01
  3.505540E-01
  3.535648E-01
  3.528270E-01
  3.574312E-01
  3.567739E-01
  3.596531E-01
  3.559840E-01
  3.557793E-01
  3.501229E-01
  3.494986E-01
  3.450177E-01
  3.465232E-01
  3.444568E-01
  3.479993E-01
  3.472529E-01
  3.514061E-01
  3.505929E-01
  3.541443E-01
  3.523230E-01
  3.549287E-01
  3.526657E-01
  3.553789E-01
  3.533045E-01
  3.556657E-01
  3.524805E-01
  3.534238E-01
  3.494042E-01
  3.508290E-01
  3.487577E-01
  3.527665E-01
  3.525584E-01
  3.566330E-01
  3.545211E-01
  3.558794E-01
  3.516909E-01
  3.523045E-01
  3.484739E-01
  3.498124E-01
  3.467775E-01
  3.490298E-01
  3.471359E-01
  3.505246E-01
  3.492725E-01
  3.525217E-01
  3.503516E-01
  3.522523E-01
  3.487469E-01
  3.497896E-01
  3.464252E-01
  3.488442E-01
  3.506117E-01
  3.524750E-01
  3.516789E-01
  3.539246E-01
  3.519866E-01
  3.522349E-01
  3.488973E-01
  3.493790E-01
  3.479025E-01
  3.508034E-01
  3.509439E-01
  3.538058E-01
  3.523394E-01
  3.532008E-01
  3.508411E-01
  3.527579E-01
  3.529787E-01
  3.573982E-01
  3.581521E-01
  3.603722E-01
  3.570401E-01
  3.553942E-01
  3.502995E-01
  3.493944E-01
  3.467412E-01
  3.485213E-01
  3.478371E-01
  3.507197E-01
  3.507272E-01
  3.543448E-01
  3.548518E-01
  3.579975E-01
  3.565775E-01
  3.570600E-01
  3.537715E-01
  3.542999E-01
  3.527136E-01
  3.550565E-01
  3.538687E-01
  3.549312E-01
  3.519772E-01
  3.524299E-01
  3.508001E-01
  3.536727E-01
  3.537912E-01
  3.564261E-01
  3.544335E-01
  3.546119E-01
  3.513270E-01
  3.516803E-01
  3.493535E-01
  3.506531E-01
  3.491265E-01
  3.512274E-01
  3.503427E-01
  3.524277E-01
  3.506678E-01
  3.516604E-01
  3.495942E-01
  3.514326E-01
  3.506384E-01
  3.529952E-01
  3.514842E-01
  3.526185E-01
  3.466701E-01
  3.485592E-01
  3.494089E-01
  3.521678E-01
  3.525790E-01
  3.540127E-01
  3.530214E-01
  3.536954E-01
  3.527936E-01
  3.540054E-01
  3.533920E-01
  3.541590E-01
  3.525265E-01
  3.525373E-01
  3.513215E-01
  3.530963E-01
  3.541972E-01
  3.574986E-01
  3.582176E-01
  3.591093E-01
  3.562939E-01
  3.540387E-01
  3.497464E-01
  3.480915E-01
  3.461378E-01
  3.475563E-01
  3.482513E-01
  3.510243E-01
  3.516117E-01
  3.534272E-01
  3.530059E-01
  3.542724E-01
  3.538076E-01
  3.553965E-01
  3.553861E-01
  3.571516E-01
  3.565113E-01
  3.566355E-01
  3.538393E-01
  3.523427E-01
  3.494128E-01
  3.494174E-01
  3.489425E-01
  3.511784E-01
  3.517335E-01
  3.535536E-01
  3.527991E-01
  3.534146E-01
  3.521982E-01
  3.529447E-01
  3.518547E-01
  3.523574E-01
  3.508931E-01
  3.513887E-01
  3.504688E-01
  3.517207E-01
  3.512604E-01
  3.524540E-01
  3.515334E-01
  3.520600E-01
  3.503460E-01
  3.500339E-01
  3.477621E-01
  3.476663E-01
  3.485061E-01
  3.487895E-01
  3.494360E-01
  3.519127E-01
  3.532449E-01
  3.546344E-01
  3.540041E-01
  3.539410E-01
  3.531863E-01
  3.540503E-01
  3.542102E-01
  3.549616E-01
  3.538199E-01
  3.529900E-01
  3.513559E-01
  3.518993E-01
  3.530316E-01
  3.561197E-01
  3.577538E-01
  3.585897E-01
  3.562374E-01
  3.535789E-01
  3.501395E-01
  3.491682E-01
  3.490814E-01
  3.513216E-01
  3.528854E-01
  3.548794E-01
  3.550624E-01
  3.557695E-01
  3.554070E-01
  3.560099E-01
  3.553216E-01
  3.552328E-01
  3.540332E-01
  3.541483E-01
  3.536683E-01
  3.541838E-01
  3.531565E-01
  3.524567E-01
  3.505662E-01
  3.501995E-01
  3.497992E-01
  3.511283E-01
  3.515463E-01
  3.524942E-01
  3.519868E-01
  3.524545E-01
  3.522468E-01
  3.532229E-01
  3.529905E-01
  3.534051E-01
  3.528221E-01
  3.536859E-01
  3.539887E-01
  3.551313E-01
  3.544934E-01
  3.540613E-01
  3.524830E-01
  3.524181E-01
  3.519088E-01
  3.523372E-01
  3.511025E-01
  3.502322E-01
  3.447090E-01
  3.461858E-01
  3.476579E-01
  3.509492E-01
  3.528977E-01
  3.552696E-01
  3.553953E-01
  3.559519E-01
  3.550048E-01
  3.553209E-01
  3.544189E-01
  3.544100E-01
  3.527163E-01
  3.520868E-01
  3.507950E-01
  3.518220E-01
  3.527671E-01
  3.553927E-01
  3.562623E-01
  3.569555E-01
  3.548151E-01
  3.528310E-01
  3.496331E-01
  3.487047E-01
  3.482743E-01
  3.506083E-01
  3.524046E-01
  3.548398E-01
  3.546327E-01
  3.542408E-01
  3.520328E-01
  3.514283E-01
  3.506667E-01
  3.522357E-01
  3.532344E-01
  3.552115E-01
  3.548689E-01
  3.542483E-01
  3.513213E-01
  3.494848E-01
  3.473000E-01
  3.475853E-01
  3.476789E-01
  3.493379E-01
  3.496375E-01
  3.508936E-01
  3.509655E-01
  3.525147E-01
  3.530091E-01
  3.543829E-01
  3.537587E-01
  3.535872E-01
  3.520294E-01
  3.522416E-01
  3.521756E-01
  3.540025E-01
  3.546456E-01
  3.558867E-01
  3.549592E-01
  3.542914E-01
  3.516632E-01
  3.498391E-01
  3.468930E-01
  3.458116E-01
  3.477173E-01
  3.482908E-01
  3.485596E-01
  3.513878E-01
  3.525173E-01
  3.544008E-01
  3.534612E-01
  3.535329E-01
  3.520748E-01
  3.528924E-01
  3.524827E-01
  3.535388E-01
  3.521931E-01
  3.518443E-01
  3.498915E-01
  3.505692E-01
  3.510271E-01
  3.541649E-01
  3.554806E-01
  3.570634E-01
  3.550590E-01
  3.534407E-01
  3.502227E-01
  3.499908E-01
  3.499291E-01
  3.528687E-01
  3.543670E-01
  3.566398E-01
  3.558836E-01
  3.557995E-01
  3.537516E-01
  3.535592E-01
  3.519546E-01
  3.521533E-01
  3.508346E-01
  3.514162E-01
  3.505482E-01
  3.513139E-01
  3.501330E-01
  3.503316E-01
  3.489182E-01
  3.495911E-01
  3.491724E-01
  3.507255E-01
  3.505506E-01
  3.517934E-01
  3.512991E-01
  3.526247E-01
  3.523734E-01
  3.534640E-01
  3.522442E-01
  3.522853E-01
  3.510163E-01
  3.524248E-01
  3.531566E-01
  3.557511E-01
  3.559328E-01
  3.566706E-01
  3.549732E-01
  3.548005E-01
  3.530702E-01
  3.529043E-01
  3.506862E-01
  3.498554E-01
  3.456239E-01
  3.474519E-01
  3.480172E-01
  3.509617E-01
  3.517653E-01
  3.539828E-01
  3.532946E-01
  3.539034E-01
  3.521828E-01
  3.525747E-01
  3.511051E-01
  3.516364E-01
  3.499967E-01
  3.504181E-01
  3.493009E-01
  3.510273E-01
  3.515397E-01
  3.544395E-01
  3.549863E-01
  3.565770E-01
  3.547590E-01
  3.537655E-01
  3.502400E-01
  3.492519E-01
  3.476372E-01
  3.496462E-01
  3.506327E-01
  3.534424E-01
  3.529745E-01
  3.530589E-01
  3.503162E-01
  3.498730E-01
  3.484816E-01
  3.502835E-01
  3.506898E-01
  3.528442E-01
  3.519601E-01
  3.519357E-01
  3.492362E-01
  3.487399E-01
  3.470590E-01
  3.483310E-01
  3.481744E-01
  3.501195E-01
  3.498569E-01
  3.514631E-01
  3.510568E-01
  3.526828E-01
  3.520289E-01
  3.528113E-01
  3.509029E-01
  3.507203E-01
  3.488790E-01
  3.499761E-01
  3.501314E-01
  3.530287E-01
  3.539306E-01
  3.561668E-01
  3.551680E-01
  3.549211E-01
  3.516967E-01
  3.501905E-01
  3.470483E-01
  3.468001E-01
  3.504288E-01
  3.509243E-01
  3.502963E-01
  3.517599E-01
  3.516726E-01
  3.527249E-01
  3.514393E-01
  3.513119E-01
  3.496607E-01
  3.501176E-01
  3.494355E-01
  3.504693E-01
  3.496507E-01
  3.502084E-01
  3.493179E-01
  3.507167E-01
  3.514397E-01
  3.544395E-01
  3.557022E-01
  3.575477E-01
  3.561423E-01
  3.549087E-01
  3.514496E-01
  3.501055E-01
  3.484264E-01
  3.497150E-01
  3.502060E-01
  3.523049E-01
  3.522092E-01
  3.530967E-01
  3.520296E-01
  3.525089E-01
  3.513136E-01
  3.515561E-01
  3.500316E-01
  3.502078E-01
  3.491308E-01
  3.500806E-01
  3.496343E-01
  3.507552E-01
  3.501365E-01
  3.511283E-01
  3.506677E-01
  3.519623E-01
  3.515729E-01
  3.525060E-01
  3.514657E-01
  3.517715E-01
  3.502897E-01
  3.503131E-01
  3.487693E-01
  3.492247E-01
  3.488536E-01
  3.509623E-01
  3.519037E-01
  3.541320E-01
  3.537900E-01
  3.540796E-01
  3.522698E-01
  3.522472E-01
  3.511015E-01
  3.519354E-01
  3.511468E-01
  3.516957E-01
  3.499706E-01
  3.511074E-01
  3.509467E-01
  3.515392E-01
  3.514222E-01
  3.522868E-01
  3.520892E-01
  3.523258E-01
  3.512567E-01
  3.508173E-01
  3.494926E-01
  3.492147E-01
  3.484700E-01
  3.492304E-01
  3.498707E-01
  3.519511E-01
  3.533339E-01
  3.553672E-01
  3.560604E-01
  3.569792E-01
  3.560868E-01
  3.548774E-01
  3.517081E-01
  3.490330E-01
  3.461793E-01
  3.456882E-01
  3.458799E-01
  3.477227E-01
  3.484543E-01
  3.492248E-01
  3.485241E-01
  3.488296E-01
  3.490030E-01
  3.507550E-01
  3.517407E-01
  3.529490E-01
  3.522558E-01
  3.516174E-01
  3.499102E-01
  3.494820E-01
  3.488827E-01
  3.497545E-01
  3.500523E-01
  3.511831E-01
  3.511790E-01
  3.516637E-01
  3.508709E-01
  3.506079E-01
  3.493136E-01
  3.490015E-01
  3.482240E-01
  3.488691E-01
  3.491237E-01
  3.504374E-01
  3.507582E-01
  3.516312E-01
  3.512583E-01
  3.513575E-01
  3.501595E-01
  3.495108E-01
  3.480380E-01
  3.479792E-01
  3.478927E-01
  3.493186E-01
  3.560025E-01
  3.552456E-01
  3.538722E-01
  3.523738E-01
  3.515536E-01
  3.509943E-01
  3.507375E-01
  3.502343E-01
  3.498503E-01
  3.493492E-01
  3.491473E-01
  3.489191E-01
  3.490795E-01
  3.494188E-01
  3.504003E-01
  3.516560E-01
  3.533519E-01
  3.548549E-01
  3.562018E-01
  3.567112E-01
  3.564212E-01
  3.548357E-01
  3.525315E-01
  3.497912E-01
  3.477448E-01
  3.465727E-01
  3.466585E-01
  3.472876E-01
  3.483579E-01
  3.492992E-01
  3.504718E-01
  3.515180E-01
  3.525293E-01
  3.527555E-01
  3.523665E-01
  3.513026E-01
  3.505202E-01
  3.501324E-01
  3.504970E-01
  3.509251E-01
  3.514580E-01
  3.517263E-01
  3.522250E-01
  3.525901E-01
  3.528417E-01
  3.522088E-01
  3.509321E-01
  3.490488E-01
  3.475959E-01
  3.468501E-01
  3.474522E-01
  3.489406E-01
  3.511559E-01
  3.529587E-01
  3.538891E-01
  3.531433E-01
  3.512630E-01
  3.486987E-01
  3.468512E-01
  3.462240E-01
  3.474716E-01
  3.498949E-01
  3.529279E-01
  3.551061E-01
  3.556196E-01
  3.551624E-01
  3.542450E-01
  3.518886E-01
  3.511458E-01
  3.503507E-01
  3.511875E-01
  3.510139E-01
  3.513781E-01
  3.501438E-01
  3.495639E-01
  3.480938E-01
  3.482904E-01
  3.484927E-01
  3.506037E-01
  3.519995E-01
  3.539556E-01
  3.540868E-01
  3.546594E-01
  3.540777E-01
  3.544367E-01
  3.532423E-01
  3.520393E-01
  3.489252E-01
  3.467830E-01
  3.446220E-01
  3.448986E-01
  3.452208E-01
  3.467630E-01
  3.469753E-01
  3.480305E-01
  3.485110E-01
  3.507714E-01
  3.524132E-01
  3.545591E-01
  3.543853E-01
  3.538212E-01
  3.514464E-01
  3.501758E-01
  3.486514E-01
  3.490972E-01
  3.493140E-01
  3.509112E-01
  3.513636E-01
  3.522109E-01
  3.511231E-01
  3.502045E-01
  3.479396E-01
  3.471039E-01
  3.463513E-01
  3.479052E-01
  3.493649E-01
  3.518617E-01
  3.524455E-01
  3.527017E-01
  3.508481E-01
  3.495847E-01
  3.474817E-01
  3.468425E-01
  3.458253E-01
  3.467172E-01
  3.478032E-01
  3.509511E-01
  3.532846E-01
  3.600974E-01
  3.576079E-01
  3.559358E-01
  3.520857E-01
  3.510475E-01
  3.488537E-01
  3.493762E-01
  3.481329E-01
  3.490263E-01
  3.478408E-01
  3.487256E-01
  3.476604E-01
  3.489327E-01
  3.485278E-01
  3.504934E-01
  3.504169E-01
  3.521423E-01
  3.514310E-01
  3.526113E-01
  3.517544E-01
  3.530031E-01
  3.519137E-01
  3.523345E-01
  3.501322E-01
  3.498751E-01
  3.479442E-01
  3.487170E-01
  3.479686E-01
  3.496078E-01
  3.494611E-01
  3.517752E-01
  3.523597E-01
  3.548880E-01
  3.544761E-01
  3.548733E-01
  3.522021E-01
  3.514792E-01
  3.493109E-01
  3.500509E-01
  3.493028E-01
  3.508958E-01
  3.506257E-01
  3.526287E-01
  3.524719E-01
  3.536871E-01
  3.515745E-01
  3.503930E-01
  3.468301E-01
  3.461265E-01
  3.449462E-01
  3.474818E-01
  3.490502E-01
  3.527941E-01
  3.535563E-01
  3.548637E-01
  3.525381E-01
  3.513429E-01
  3.480596E-01
  3.477468E-01
  3.469192E-01
  3.498803E-01
  3.521102E-01
  3.567649E-01
  3.583725E-01
  3.565882E-01
  3.546304E-01
  3.545368E-01
  3.508556E-01
  3.507419E-01
  3.483890E-01
  3.498161E-01
  3.483324E-01
  3.497278E-01
  3.476829E-01
  3.485808E-01
  3.466080E-01
  3.483314E-01
  3.476857E-01
  3.505370E-01
  3.499816E-01
  3.516425E-01
  3.493218E-01
  3.499587E-01
  3.481839E-01
  3.504321E-01
  3.498966E-01
  3.518807E-01
  3.497448E-01
  3.501723E-01
  3.478117E-01
  3.493723E-01
  3.484168E-01
  3.505406E-01
  3.492207E-01
  3.509995E-01
  3.502468E-01
  3.533623E-01
  3.535336E-01
  3.560614E-01
  3.540236E-01
  3.537997E-01
  3.498951E-01
  3.494544E-01
  3.469207E-01
  3.486902E-01
  3.483523E-01
  3.515552E-01
  3.513207E-01
  3.531846E-01
  3.505977E-01
  3.501424E-01
  3.464419E-01
  3.466359E-01
  3.451373E-01
  3.480655E-01
  3.485968E-01
  3.519888E-01
  3.513291E-01
  3.528224E-01
  3.507827E-01
  3.520835E-01
  3.506662E-01
  3.524566E-01
  3.509149E-01
  3.524296E-01
  3.512971E-01
  3.540584E-01
  3.540513E-01
  3.576559E-01
  3.544325E-01
  3.547452E-01
  3.508314E-01
  3.512057E-01
  3.478207E-01
  3.487871E-01
  3.459716E-01
  3.475391E-01
  3.454537E-01
  3.478347E-01
  3.465219E-01
  3.494721E-01
  3.483220E-01
  3.508831E-01
  3.487602E-01
  3.501151E-01
  3.471729E-01
  3.486391E-01
  3.468391E-01
  3.498976E-01
  3.492726E-01
  3.525296E-01
  3.511932E-01
  3.535350E-01
  3.516764E-01
  3.539398E-01
  3.520864E-01
  3.542528E-01
  3.524523E-01
  3.551386E-01
  3.540571E-01
  3.568031E-01
  3.544077E-01
  3.548355E-01
  3.504530E-01
  3.504627E-01
  3.474286E-01
  3.495255E-01
  3.482432E-01
  3.513560E-01
  3.506291E-01
  3.540916E-01
  3.531115E-01
  3.551807E-01
  3.516908E-01
  3.512108E-01
  3.465946E-01
  3.470200E-01
  3.449043E-01
  3.481557E-01
  3.480710E-01
  3.520957E-01
  3.516393E-01
  3.547461E-01
  3.533445E-01
  3.558041E-01
  3.540344E-01
  3.562726E-01
  3.543534E-01
  3.566392E-01
  3.550415E-01
  3.576736E-01
  3.559460E-01
  3.520897E-01
  3.507607E-01
  3.528093E-01
  3.504102E-01
  3.516117E-01
  3.490359E-01
  3.504727E-01
  3.481062E-01
  3.495040E-01
  3.470292E-01
  3.485684E-01
  3.467150E-01
  3.492707E-01
  3.484004E-01
  3.512976E-01
  3.496363E-01
  3.508164E-01
  3.474830E-01
  3.482220E-01
  3.461966E-01
  3.492122E-01
  3.489417E-01
  3.521468E-01
  3.506693E-01
  3.525517E-01
  3.507092E-01
  3.531337E-01
  3.517574E-01
  3.537948E-01
  3.514144E-01
  3.528316E-01
  3.508973E-01
  3.534375E-01
  3.522147E-01
  3.542908E-01
  3.515762E-01
  3.520066E-01
  3.484365E-01
  3.491937E-01
  3.470638E-01
  3.498748E-01
  3.497131E-01
  3.536464E-01
  3.531000E-01
  3.551633E-01
  3.519989E-01
  3.519478E-01
  3.481693E-01
  3.490533E-01