# vtk DataFile Version 2.0
title
ASCII
DATASET STRUCTURED_GRID
DIMENSIONS   64   64    1
POINTS   4096  float
  0.000000E+00  0.000000E+00  0.000000E+00
  0.000000E+00  3.906250E-01  0.000000E+00
  0.000000E+00  7.812500E-01  0.000000E+00
  0.000000E+00  1.171875E+00  0.000000E+00
  0.000000E+00  1.562500E+00  0.000000E+00
  0.000000E+00  1.953125E+00  0.000000E+00
  0.000000E+00  2.343750E+00  0.000000E+00
  0.000000E+00  2.734375E+00  0.000000E+00
  0.000000E+00  3.125000E+00  0.000000E+00
  0.000000E+00  3.515625E+00  0.000000E+00
  0.000000E+00  3.906250E+00  0.000000E+00
  0.000000E+00  4.296875E+00  0.000000E+00
  0.000000E+00  4.687500E+00  0.000000E+00
  0.000000E+00  5.078125E+00  0.000000E+00
  0.000000E+00  5.468750E+00  0.000000E+00
  0.000000E+00  5.859375E+00  0.000000E+00
  0.000000E+00  6.250000E+00  0.000000E+00
  0.000000E+00  6.640625E+00  0.000000E+00
  0.000000E+00  7.031250E+00  0.000000E+00
  0.000000E+00  7.421875E+00  0.000000E+00
  0.000000E+00  7.812500E+00  0.000000E+00
  0.000000E+00  8.203125E+00  0.000000E+00
  0.000000E+00  8.593750E+00  0.000000E+00
  0.000000E+00  8.984375E+00  0.000000E+00
  0.000000E+00  9.375000E+00  0.000000E+00
  0.000000E+00  9.765625E+00  0.000000E+00
  0.000000E+00  1.015625E+01  0.000000E+00
  0.000000E+00  1.054688E+01  0.000000E+00
  0.000000E+00  1.093750E+01  0.000000E+00
  0.000000E+00  1.132812E+01  0.000000E+00
  0.000000E+00  1.171875E+01  0.000000E+00
  0.000000E+00  1.210938E+01  0.000000E+00
  0.000000E+00  1.250000E+01  0.000000E+00
  0.000000E+00  1.289062E+01  0.000000E+00
  0.000000E+00  1.328125E+01  0.000000E+00
  0.000000E+00  1.367188E+01  0.000000E+00
  0.000000E+00  1.406250E+01  0.000000E+00
  0.000000E+00  1.445312E+01  0.000000E+00
  0.000000E+00  1.484375E+01  0.000000E+00
  0.000000E+00  1.523438E+01  0.000000E+00
  0.000000E+00  1.562500E+01  0.000000E+00
  0.000000E+00  1.601562E+01  0.000000E+00
  0.000000E+00  1.640625E+01  0.000000E+00
  0.000000E+00  1.679688E+01  0.000000E+00
  0.000000E+00  1.718750E+01  0.000000E+00
  0.000000E+00  1.757812E+01  0.000000E+00
  0.000000E+00  1.796875E+01  0.000000E+00
  0.000000E+00  1.835938E+01  0.000000E+00
  0.000000E+00  1.875000E+01  0.000000E+00
  0.000000E+00  1.914062E+01  0.000000E+00
  0.000000E+00  1.953125E+01  0.000000E+00
  0.000000E+00  1.992188E+01  0.000000E+00
  0.000000E+00  2.031250E+01  0.000000E+00
  0.000000E+00  2.070312E+01  0.000000E+00
  0.000000E+00  2.109375E+01  0.000000E+00
  0.000000E+00  2.148438E+01  0.000000E+00
  0.000000E+00  2.187500E+01  0.000000E+00
  0.000000E+00  2.226562E+01  0.000000E+00
  0.000000E+00  2.265625E+01  0.000000E+00
  0.000000E+00  2.304688E+01  0.000000E+00
  0.000000E+00  2.343750E+01  0.000000E+00
  0.000000E+00  2.382812E+01  0.000000E+00
  0.000000E+00  2.421875E+01  0.000000E+00
  0.000000E+00  2.460938E+01  0.000000E+00
  3.906250E-01  0.000000E+00  0.000000E+00
  3.906250E-01  3.906250E-01  0.000000E+00
  3.906250E-01  7.812500E-01  0.000000E+00
  3.906250E-01  1.171875E+00  0.000000E+00
  3.906250E-01  1.562500E+00  0.000000E+00
  3.906250E-01  1.953125E+00  0.000000E+00
  3.906250E-01  2.343750E+00  0.000000E+00
  3.906250E-01  2.734375E+00  0.000000E+00
  3.906250E-01  3.125000E+00  0.000000E+00
  3.906250E-01  3.515625E+00  0.000000E+00
  3.906250E-01  3.906250E+00  0.000000E+00
  3.906250E-01  4.296875E+00  0.000000E+00
  3.906250E-01  4.687500E+00  0.000000E+00
  3.906250E-01  5.078125E+00  0.000000E+00
  3.906250E-01  5.468750E+00  0.000000E+00
  3.906250E-01  5.859375E+00  0.000000E+00
  3.906250E-01  6.250000E+00  0.000000E+00
  3.906250E-01  6.640625E+00  0.000000E+00
  3.906250E-01  7.031250E+00  0.000000E+00
  3.906250E-01  7.421875E+00  0.000000E+00
  3.906250E-01  7.812500E+00  0.000000E+00
  3.906250E-01  8.203125E+00  0.000000E+00
  3.906250E-01  8.593750E+00  0.000000E+00
  3.906250E-01  8.984375E+00  0.000000E+00
  3.906250E-01  9.375000E+00  0.000000E+00
  3.906250E-01  9.765625E+00  0.000000E+00
  3.906250E-01  1.015625E+01  0.000000E+00
  3.906250E-01  1.054688E+01  0.000000E+00
  3.906250E-01  1.093750E+01  0.000000E+00
  3.906250E-01  1.132812E+01  0.000000E+00
  3.906250E-01  1.171875E+01  0.000000E+00
  3.906250E-01  1.210938E+01  0.000000E+00
  3.906250E-01  1.250000E+01  0.000000E+00
  3.906250E-01  1.289062E+01  0.000000E+00
  3.906250E-01  1.328125E+01  0.000000E+00
  3.906250E-01  1.367188E+01  0.000000E+00
  3.906250E-01  1.406250E+01  0.000000E+00
  3.906250E-01  1.445312E+01  0.000000E+00
  3.906250E-01  1.484375E+01  0.000000E+00
  3.906250E-01  1.523438E+01  0.000000E+00
  3.906250E-01  1.562500E+01  0.000000E+00
  3.906250E-01  1.601562E+01  0.000000E+00
  3.906250E-01  1.640625E+01  0.000000E+00
  3.906250E-01  1.679688E+01  0.000000E+00
  3.906250E-01  1.718750E+01  0.000000E+00
  3.906250E-01  1.757812E+01  0.000000E+00
  3.906250E-01  1.796875E+01  0.000000E+00
  3.906250E-01  1.835938E+01  0.000000E+00
  3.906250E-01  1.875000E+01  0.000000E+00
  3.906250E-01  1.914062E+01  0.000000E+00
  3.906250E-01  1.953125E+01  0.000000E+00
  3.906250E-01  1.992188E+01  0.000000E+00
  3.906250E-01  2.031250E+01  0.000000E+00
  3.906250E-01  2.070312E+01  0.000000E+00
  3.906250E-01  2.109375E+01  0.000000E+00
  3.906250E-01  2.148438E+01  0.000000E+00
  3.906250E-01  2.187500E+01  0.000000E+00
  3.906250E-01  2.226562E+01  0.000000E+00
  3.906250E-01  2.265625E+01  0.000000E+00
  3.906250E-01  2.304688E+01  0.000000E+00
  3.906250E-01  2.343750E+01  0.000000E+00
  3.906250E-01  2.382812E+01  0.000000E+00
  3.906250E-01  2.421875E+01  0.000000E+00
  3.906250E-01  2.460938E+01  0.000000E+00
  7.812500E-01  0.000000E+00  0.000000E+00
  7.812500E-01  3.906250E-01  0.000000E+00
  7.812500E-01  7.812500E-01  0.000000E+00
  7.812500E-01  1.171875E+00  0.000000E+00
  7.812500E-01  1.562500E+00  0.000000E+00
  7.812500E-01  1.953125E+00  0.000000E+00
  7.812500E-01  2.343750E+00  0.000000E+00
  7.812500E-01  2.734375E+00  0.000000E+00
  7.812500E-01  3.125000E+00  0.000000E+00
  7.812500E-01  3.515625E+00  0.000000E+00
  7.812500E-01  3.906250E+00  0.000000E+00
  7.812500E-01  4.296875E+00  0.000000E+00
  7.812500E-01  4.687500E+00  0.000000E+00
  7.812500E-01  5.078125E+00  0.000000E+00
  7.812500E-01  5.468750E+00  0.000000E+00
  7.812500E-01  5.859375E+00  0.000000E+00
  7.812500E-01  6.250000E+00  0.000000E+00
  7.812500E-01  6.640625E+00  0.000000E+00
  7.812500E-01  7.031250E+00  0.000000E+00
  7.812500E-01  7.421875E+00  0.000000E+00
  7.812500E-01  7.812500E+00  0.000000E+00
  7.812500E-01  8.203125E+00  0.000000E+00
  7.812500E-01  8.593750E+00  0.000000E+00
  7.812500E-01  8.984375E+00  0.000000E+00
  7.812500E-01  9.375000E+00  0.000000E+00
  7.812500E-01  9.765625E+00  0.000000E+00
  7.812500E-01  1.015625E+01  0.000000E+00
  7.812500E-01  1.054688E+01  0.000000E+00
  7.812500E-01  1.093750E+01  0.000000E+00
  7.812500E-01  1.132812E+01  0.000000E+00
  7.812500E-01  1.171875E+01  0.000000E+00
  7.812500E-01  1.210938E+01  0.000000E+00
  7.812500E-01  1.250000E+01  0.000000E+00
  7.812500E-01  1.289062E+01  0.000000E+00
  7.812500E-01  1.328125E+01  0.000000E+00
  7.812500E-01  1.367188E+01  0.000000E+00
  7.812500E-01  1.406250E+01  0.000000E+00
  7.812500E-01  1.445312E+01  0.000000E+00
  7.812500E-01  1.484375E+01  0.000000E+00
  7.812500E-01  1.523438E+01  0.000000E+00
  7.812500E-01  1.562500E+01  0.000000E+00
  7.812500E-01  1.601562E+01  0.000000E+00
  7.812500E-01  1.640625E+01  0.000000E+00
  7.812500E-01  1.679688E+01  0.000000E+00
  7.812500E-01  1.718750E+01  0.000000E+00
  7.812500E-01  1.757812E+01  0.000000E+00
  7.812500E-01  1.796875E+01  0.000000E+00
  7.812500E-01  1.835938E+01  0.000000E+00
  7.812500E-01  1.875000E+01  0.000000E+00
  7.812500E-01  1.914062E+01  0.000000E+00
  7.812500E-01  1.953125E+01  0.000000E+00
  7.812500E-01  1.992188E+01  0.000000E+00
  7.812500E-01  2.031250E+01  0.000000E+00
  7.812500E-01  2.070312E+01  0.000000E+00
  7.812500E-01  2.109375E+01  0.000000E+00
  7.812500E-01  2.148438E+01  0.000000E+00
  7.812500E-01  2.187500E+01  0.000000E+00
  7.812500E-01  2.226562E+01  0.000000E+00
  7.812500E-01  2.265625E+01  0.000000E+00
  7.812500E-01  2.304688E+01  0.000000E+00
  7.812500E-01  2.343750E+01  0.000000E+00
  7.812500E-01  2.382812E+01  0.000000E+00
  7.812500E-01  2.421875E+01  0.000000E+00
  7.812500E-01  2.460938E+01  0.000000E+00
  1.171875E+00  0.000000E+00  0.000000E+00
  1.171875E+00  3.906250E-01  0.000000E+00
  1.171875E+00  7.812500E-01  0.000000E+00
  1.171875E+00  1.171875E+00  0.000000E+00
  1.171875E+00  1.562500E+00  0.000000E+00
  1.171875E+00  1.953125E+00  0.000000E+00
  1.171875E+00  2.343750E+00  0.000000E+00
  1.171875E+00  2.734375E+00  0.000000E+00
  1.171875E+00  3.125000E+00  0.000000E+00
  1.171875E+00  3.515625E+00  0.000000E+00
  1.171875E+00  3.906250E+00  0.000000E+00
  1.171875E+00  4.296875E+00  0.000000E+00
  1.171875E+00  4.687500E+00  0.000000E+00
  1.171875E+00  5.078125E+00  0.000000E+00
  1.171875E+00  5.468750E+00  0.000000E+00
  1.171875E+00  5.859375E+00  0.000000E+00
  1.171875E+00  6.250000E+00  0.000000E+00
  1.171875E+00  6.640625E+00  0.000000E+00
  1.171875E+00  7.031250E+00  0.000000E+00
  1.171875E+00  7.421875E+00  0.000000E+00
  1.171875E+00  7.812500E+00  0.000000E+00
  1.171875E+00  8.203125E+00  0.000000E+00
  1.171875E+00  8.593750E+00  0.000000E+00
  1.171875E+00  8.984375E+00  0.000000E+00
  1.171875E+00  9.375000E+00  0.000000E+00
  1.171875E+00  9.765625E+00  0.000000E+00
  1.171875E+00  1.015625E+01  0.000000E+00
  1.171875E+00  1.054688E+01  0.000000E+00
  1.171875E+00  1.093750E+01  0.000000E+00
  1.171875E+00  1.132812E+01  0.000000E+00
  1.171875E+00  1.171875E+01  0.000000E+00
  1.171875E+00  1.210938E+01  0.000000E+00
  1.171875E+00  1.250000E+01  0.000000E+00
  1.171875E+00  1.289062E+01  0.000000E+00
  1.171875E+00  1.328125E+01  0.000000E+00
  1.171875E+00  1.367188E+01  0.000000E+00
  1.171875E+00  1.406250E+01  0.000000E+00
  1.171875E+00  1.445312E+01  0.000000E+00
[...]
POINT_DATA   4096
SCALARS CON  float  1
LOOKUP_TABLE default
  3.632527E-01
  3.631472E-01
  3.676697E-01
  3.652363E-01
  3.663820E-01
  3.617956E-01
  3.633918E-01
  3.612434E-01
  3.650498E-01
  3.631073E-01
  3.651717E-01
  3.610532E-01
  3.621559E-01
  3.589169E-01
  3.621012E-01
  3.610536E-01
  3.655030E-01
  3.641219E-01
  3.667873E-01
  3.629517E-01
  3.636524E-01
  3.590695E-01
  3.599855E-01
  3.560062E-01
  3.575349E-01
  3.545362E-01
  3.578149E-01
  3.570976E-01
  3.620688E-01
  3.611440E-01
  3.639805E-01
  3.603994E-01
  3.620338E-01
  3.594444E-01
  3.630393E-01
  3.614212E-01
  3.640171E-01
  3.601672E-01
  3.609531E-01
  3.567573E-01
  3.583367E-01
  3.551589E-01
  3.572944E-01
  3.543230E-01
  3.569099E-01
  3.552859E-01
  3.602311E-01
  3.611556E-01
  3.672799E-01
  3.663357E-01
  3.677329E-01
  3.615554E-01
  3.605172E-01
  3.565949E-01
  3.612576E-01
  3.633090E-01
  3.708198E-01
  3.707349E-01
  3.726163E-01
  3.667192E-01
  3.654360E-01
  3.597964E-01
  3.610036E-01
  3.587872E-01
  3.646490E-01
  3.655625E-01
  3.699899E-01
  3.685604E-01
  3.684013E-01
  3.628753E-01
  3.617478E-01
  3.587673E-01
  3.615437E-01
  3.613148E-01
  3.645396E-01
  3.629262E-01
  3.642511E-01
  3.612953E-01
  3.623671E-01
  3.604109E-01
  3.633280E-01
  3.629776E-01
  3.660104E-01
  3.638215E-01
  3.641202E-01
  3.600702E-01
  3.603454E-01
  3.577096E-01
  3.595447E-01
  3.578095E-01
  3.600377E-01
  3.588414E-01
  3.619959E-01
  3.615318E-01
  3.644682E-01
  3.626192E-01
  3.637123E-01
  3.605226E-01
  3.612346E-01
  3.585006E-01
  3.600658E-01
  3.581829E-01
  3.602131E-01
  3.580780E-01
  3.591022E-01
  3.557483E-01
  3.561447E-01
  3.533067E-01
  3.552521E-01
  3.546444E-01
  3.591437E-01
  3.608181E-01
  3.662234E-01
  3.660311E-01
  3.669846E-01
  3.621158E-01
  3.614547E-01
  3.596099E-01
  3.648326E-01
  3.679420E-01
  3.738579E-01
  3.726332E-01
  3.720538E-01
  3.661160E-01
  3.645749E-01
  3.606513E-01
  3.619942E-01
  3.607840E-01
  3.591327E-01
  3.638383E-01
  3.688198E-01
  3.696521E-01
  3.681290E-01
  3.635971E-01
  3.607774E-01
  3.589730E-01
  3.604036E-01
  3.617084E-01
  3.638709E-01
  3.639059E-01
  3.640586E-01
  3.625562E-01
  3.623180E-01
  3.616207E-01
  3.628355E-01
  3.633225E-01
  3.646415E-01
  3.639656E-01
  3.635001E-01
  3.613971E-01
  3.604139E-01
  3.585869E-01
  3.582184E-01
  3.570961E-01
  3.575421E-01
  3.573474E-01
  3.585400E-01
  3.584659E-01
  3.590780E-01
  3.582665E-01
  3.587901E-01
  3.588124E-01
  3.604383E-01
  3.607670E-01
  3.614115E-01
  3.600074E-01
  3.591744E-01
  3.570751E-01
  3.561022E-01
  3.540504E-01
  3.533426E-01
  3.521794E-01
  3.532526E-01
  3.546130E-01
  3.583597E-01
  3.616221E-01
  3.654636E-01
  3.662916E-01
  3.657637E-01
  3.624079E-01
  3.604459E-01
  3.595810E-01
  3.628044E-01
  3.668639E-01
  3.716478E-01
  3.724898E-01
  3.708115E-01
  3.653394E-01
  3.603602E-01
  3.554804E-01
  3.541642E-01
  3.547224E-01
  3.599983E-01
  3.654127E-01
  3.682765E-01
  3.702286E-01
  3.665049E-01
  3.624373E-01
  3.568434E-01
  3.556340E-01
  3.554817E-01
  3.592477E-01
  3.615470E-01
  3.648079E-01
  3.644223E-01
  3.643806E-01
  3.617084E-01
  3.615011E-01
  3.607820E-01
  3.632948E-01
  3.641371E-01
  3.659221E-01
  3.642680E-01
  3.635827E-01
  3.609889E-01
  3.609583E-01
  3.595489E-01
  3.601159E-01
  3.585427E-01
  3.588811E-01
  3.578072E-01
  3.594160E-01
  3.595817E-01
  3.614150E-01
  3.604512E-01
  3.604805E-01
  3.582135E-01
  3.582786E-01
  3.573625E-01
  3.591855E-01
  3.591941E-01
  3.603234E-01
  3.583055E-01
  3.574323E-01
  3.549336E-01
  3.555291E-01
  3.555996E-01
  3.584997E-01
  3.597816E-01
  3.628144E-01
  3.632864E-01
  3.645083E-01
  3.623729E-01
  3.613945E-01
  3.592126E-01
  3.610265E-01
  3.631598E-01
  3.680465E-01
  3.696091E-01
  3.702231E-01
  3.662024E-01
  3.630004E-01
  3.583867E-01
  3.570781E-01
  3.555365E-01
  3.577530E-01
  3.561201E-01
  3.633103E-01
  3.650336E-01
  3.682936E-01
  3.634979E-01
  3.613839E-01
  3.553152E-01
  3.559609E-01
  3.546323E-01
  3.593928E-01
  3.599307E-01
  3.641037E-01
  3.623176E-01
  3.639237E-01
  3.606814E-01
  3.625453E-01
  3.609055E-01
  3.645588E-01
  3.636996E-01
  3.666319E-01
  3.638523E-01
  3.646236E-01
  3.603233E-01
  3.605252E-01
  3.565630E-01
  3.576308E-01
  3.547921E-01
  3.569838E-01
  3.551396E-01
  3.580705E-01
  3.565805E-01
  3.594786E-01
  3.576959E-01
  3.603733E-01
  3.586188E-01
  3.614329E-01
  3.595897E-01
  3.618882E-01
  3.591327E-01
  3.603245E-01
  3.566090E-01
  3.575074E-01
  3.547137E-01
  3.576643E-01
  3.572597E-01
  3.617780E-01
  3.613343E-01
  3.644982E-01
  3.621334E-01
  3.634558E-01
  3.596030E-01
  3.600678E-01
  3.565968E-01
  3.589803E-01
  3.585186E-01
  3.636208E-01
  3.639076E-01
  3.671025E-01
  3.634713E-01
  3.625378E-01
  3.563412E-01
  3.552346E-01
  3.514610E-01
  3.547440E-01
  3.593925E-01
  3.645395E-01
  3.638916E-01
  3.667987E-01
  3.615301E-01
  3.600334E-01
  3.533940E-01
  3.541658E-01
  3.521615E-01
  3.575424E-01
  3.581738E-01
  3.634877E-01
  3.616688E-01
  3.637320E-01
  3.597088E-01
  3.618470E-01
  3.600906E-01
  3.651161E-01
  3.647745E-01
  3.686469E-01
  3.650599E-01
  3.654980E-01
  3.600574E-01
  3.606084E-01
  3.565647E-01
  3.585747E-01
  3.555249E-01
  3.582832E-01
  3.563646E-01
  3.608155E-01
  3.603560E-01
  3.648380E-01
  3.623139E-01
  3.636171E-01
  3.587754E-01
  3.601098E-01
  3.575678E-01
  3.617210E-01
  3.604721E-01
  3.635509E-01
  3.597867E-01
  3.610466E-01
  3.578355E-01
  3.617304E-01
  3.612799E-01
  3.659523E-01
  3.636206E-01
  3.652054E-01
  3.605185E-01
  3.613088E-01
  3.570148E-01
  3.586727E-01
  3.557276E-01
  3.593109E-01
  3.583957E-01
  3.630129E-01
  3.612615E-01
  3.636743E-01
  3.597586E-01
  3.612668E-01
  3.577595E-01
  3.600937E-01
  3.573173E-01
  3.605576E-01
  3.568793E-01
  3.615593E-01
  3.611371E-01
  3.641745E-01
  3.604379E-01
  3.604699E-01
  3.558057E-01
  3.572158E-01
  3.553162E-01
  3.593618E-01
  3.587791E-01
  3.624448E-01
  3.601861E-01
  3.621369E-01
  3.593710E-01
  3.624450E-01
  3.617645E-01
  3.665317E-01
  3.659122E-01
  3.688631E-01
  3.651404E-01
  3.649330E-01
  3.591347E-01
  3.584144E-01
  3.537674E-01
  3.552696E-01
  3.532004E-01
  3.568751E-01
  3.561928E-01
  3.605149E-01
  3.597912E-01
  3.634668E-01
  3.615572E-01
  3.640527E-01
  3.615875E-01
  3.642865E-01
  3.622378E-01
  3.647686E-01
  3.616304E-01
  3.626070E-01
  3.584347E-01
  3.597832E-01
  3.576639E-01
  3.618930E-01
  3.619219E-01
  3.662226E-01
  3.639842E-01
  3.650905E-01
  3.605541E-01
  3.610681E-01
  3.572226E-01
  3.586870E-01
  3.556446E-01
  3.579097E-01
  3.559166E-01
  3.593087E-01
  3.580184E-01
  3.613797E-01
  3.593102E-01
  3.614385E-01
  3.580349E-01
  3.591563E-01
  3.556660E-01
  3.580182E-01
  3.596927E-01
  3.614277E-01
  3.606960E-01
  3.630136E-01
  3.611296E-01
  3.612984E-01
  3.578890E-01
  3.582848E-01
  3.568249E-01
  3.597477E-01
  3.599737E-01
  3.628546E-01
  3.613886E-01
  3.621411E-01
  3.597109E-01
  3.615964E-01
  3.619629E-01
  3.665661E-01
  3.675107E-01
  3.697408E-01
  3.663189E-01
  3.644635E-01
  3.592122E-01
  3.581741E-01
  3.555206E-01
  3.573221E-01
  3.567134E-01
  3.595986E-01
  3.596555E-01
  3.633601E-01
  3.641006E-01
  3.674257E-01
  3.660530E-01
  3.663216E-01
  3.627887E-01
  3.631601E-01
  3.616857E-01
  3.642274E-01
  3.632244E-01
  3.642341E-01
  3.610956E-01
  3.613105E-01
  3.596627E-01
  3.626997E-01
  3.631099E-01
  3.658418E-01
  3.637294E-01
  3.636144E-01
  3.601737E-01
  3.605124E-01
  3.583085E-01
  3.596418E-01
  3.581197E-01
  3.601803E-01
  3.593386E-01
  3.614056E-01
  3.595855E-01
  3.604263E-01
  3.583479E-01
  3.603257E-01
  3.598520E-01
  3.624315E-01
  3.609681E-01
  3.619018E-01
  3.556417E-01
  3.574417E-01
  3.584076E-01
  3.611973E-01
  3.617702E-01
  3.632063E-01
  3.622979E-01
  3.628808E-01
  3.620023E-01
  3.631294E-01
  3.625834E-01
  3.632694E-01
  3.616300E-01
  3.614757E-01
  3.602745E-01
  3.620435E-01
  3.633518E-01
  3.667261E-01
  3.675656E-01
  3.683557E-01
  3.655179E-01
  3.630919E-01
  3.587484E-01
  3.569237E-01
  3.549888E-01
  3.563949E-01
  3.572699E-01
  3.600765E-01
  3.607587E-01
  3.625027E-01
  3.621571E-01
  3.633891E-01
  3.629946E-01
  3.644941E-01
  3.645499E-01
  3.663210E-01
  3.658446E-01
  3.659363E-01
  3.631207E-01
  3.614027E-01
  3.583999E-01
  3.582909E-01
  3.579265E-01
  3.601915E-01
  3.608730E-01
  3.625962E-01
  3.617908E-01
  3.622401E-01
  3.611028E-01
  3.619185E-01
  3.610471E-01
  3.615554E-01
  3.601282E-01
  3.605036E-01
  3.596160E-01
  3.607773E-01
  3.603159E-01
  3.613502E-01
  3.604431E-01
  3.609537E-01
  3.594229E-01
  3.591373E-01
  3.569189E-01
  3.566668E-01
  3.573292E-01
  3.574813E-01
  3.582980E-01
  3.609339E-01
  3.625324E-01
  3.639524E-01
  3.633589E-01
  3.631534E-01
  3.624039E-01
  3.632145E-01
  3.634960E-01
  3.642302E-01
  3.631128E-01
  3.620893E-01
  3.603636E-01
  3.607761E-01
  3.620447E-01
  3.652394E-01
  3.670736E-01
  3.678456E-01
  3.654134E-01
  3.625018E-01
  3.590010E-01
  3.579816E-01
  3.581035E-01
  3.604816E-01
  3.622332E-01
  3.641261E-01
  3.641997E-01
  3.646839E-01
  3.643574E-01
  3.649879E-01
  3.644485E-01
  3.642997E-01
  3.631250E-01
  3.631957E-01
  3.628713E-01
  3.634061E-01
  3.624136E-01
  3.615117E-01
  3.595250E-01
  3.590287E-01
  3.587449E-01
  3.601134E-01
  3.606172E-01
  3.613927E-01
  3.607913E-01
  3.611624E-01
  3.611880E-01
  3.623736E-01
  3.623724E-01
  3.626937E-01
  3.620481E-01
  3.628165E-01
  3.632926E-01
  3.644858E-01
  3.638455E-01
  3.630989E-01
  3.613251E-01
  3.611271E-01
  3.608166E-01
  3.613649E-01
  3.602371E-01
  3.591746E-01
  3.535106E-01
  3.549931E-01
  3.565770E-01
  3.599794E-01
  3.620755E-01
  3.645020E-01
  3.646423E-01
  3.651167E-01
  3.641411E-01
  3.644593E-01
  3.636569E-01
  3.636792E-01
  3.619533E-01
  3.611624E-01
  3.597553E-01
  3.607198E-01
  3.617433E-01
  3.644424E-01
  3.653883E-01
  3.660466E-01
  3.638577E-01
  3.617664E-01
  3.585233E-01
  3.575764E-01
  3.572748E-01
  3.597925E-01
  3.618079E-01
  3.642819E-01
  3.639550E-01
  3.632853E-01
  3.608694E-01
  3.601385E-01
  3.594191E-01
  3.610831E-01
  3.622756E-01
  3.644053E-01
  3.641599E-01
  3.634312E-01
  3.603130E-01
  3.582653E-01
  3.560605E-01
  3.564446E-01
  3.567213E-01
  3.584266E-01
  3.586624E-01
  3.597399E-01
  3.597440E-01
  3.613565E-01
  3.621015E-01
  3.636872E-01
  3.631626E-01
  3.628663E-01
  3.611558E-01
  3.612625E-01
  3.612768E-01
  3.632103E-01
  3.639403E-01
  3.651146E-01
  3.640997E-01
  3.633242E-01
  3.606738E-01
  3.587952E-01
  3.558084E-01
  3.546337E-01
  3.565344E-01
  3.570941E-01
  3.574296E-01
  3.604626E-01
  3.616920E-01
  3.636123E-01
  3.625271E-01
  3.624868E-01
  3.609310E-01
  3.618409E-01
  3.615506E-01
  3.627726E-01
  3.614092E-01
  3.609618E-01
  3.587808E-01
  3.593525E-01
  3.597910E-01
  3.631064E-01
  3.645624E-01
  3.662465E-01
  3.641284E-01
  3.623713E-01
  3.589911E-01
  3.588040E-01
  3.588916E-01
  3.621282E-01
  3.637950E-01
  3.661080E-01
  3.651342E-01
  3.648369E-01
  3.626050E-01
  3.624236E-01
  3.608298E-01
  3.610849E-01
  3.597393E-01
  3.603784E-01
  3.595335E-01
  3.603602E-01
  3.591042E-01
  3.592412E-01
  3.577370E-01
  3.584787E-01
  3.581457E-01
  3.598337E-01
  3.596292E-01
  3.608134E-01
  3.602194E-01
  3.616446E-01
  3.615551E-01
  3.628369E-01
  3.615433E-01
  3.613730E-01
  3.598153E-01
  3.611883E-01
  3.620550E-01
  3.649277E-01
  3.652125E-01
  3.659470E-01
  3.641164E-01
  3.639366E-01
  3.622196E-01
  3.621241E-01
  3.598141E-01
  3.588584E-01
  3.545038E-01
  3.564223E-01
  3.569877E-01
  3.600455E-01
  3.608381E-01
  3.631055E-01
  3.622807E-01
  3.628193E-01
  3.609600E-01
  3.614313E-01
  3.600204E-01
  3.607109E-01
  3.590241E-01
  3.594164E-01
  3.581460E-01
  3.598864E-01
  3.603735E-01
  3.633988E-01
  3.639725E-01
  3.656885E-01
  3.638433E-01
  3.628621E-01
  3.591740E-01
  3.581344E-01
  3.564545E-01
  3.586499E-01
  3.597994E-01
  3.628347E-01
  3.623220E-01
  3.623164E-01
  3.593168E-01
  3.587786E-01
  3.572838E-01
  3.591848E-01
  3.596357E-01
  3.619419E-01
  3.610323E-01
  3.609970E-01
  3.581246E-01
  3.576061E-01
  3.558995E-01
  3.573389E-01
  3.572352E-01
  3.592642E-01
  3.589011E-01
  3.605192E-01
  3.600900E-01
  3.618788E-01
  3.612720E-01
  3.621050E-01
  3.599893E-01
  3.596266E-01
  3.575332E-01
  3.586194E-01
  3.588057E-01
  3.619439E-01
  3.630075E-01
  3.654892E-01
  3.645553E-01
  3.643825E-01
  3.610104E-01
  3.593962E-01
  3.560380E-01
  3.557498E-01
  3.593406E-01
  3.598318E-01
  3.592162E-01
  3.608153E-01
  3.607911E-01
  3.618824E-01
  3.604633E-01
  3.602162E-01
  3.584315E-01
  3.589265E-01
  3.583106E-01
  3.594856E-01
  3.586823E-01
  3.592335E-01
  3.582268E-01
  3.595898E-01
  3.602839E-01
  3.633995E-01
  3.647652E-01
  3.667602E-01
  3.653567E-01
  3.640782E-01
  3.604408E-01
  3.589980E-01
  3.572526E-01
  3.586499E-01
  3.592459E-01
  3.614833E-01
  3.613794E-01
  3.622621E-01
  3.611316E-01
  3.616443E-01
  3.604173E-01
  3.606399E-01
  3.589867E-01
  3.591159E-01
  3.580107E-01
  3.590753E-01
  3.586995E-01
  3.599042E-01
  3.592358E-01
  3.602048E-01
  3.596764E-01
  3.610088E-01
  3.606203E-01
  3.616153E-01
  3.605662E-01
  3.609272E-01
  3.594211E-01
  3.594174E-01
  3.576903E-01
  3.579873E-01
  3.574729E-01
  3.596571E-01
  3.607425E-01
  3.631987E-01
  3.629481E-01
  3.633060E-01
  3.614622E-01
  3.614697E-01
  3.602892E-01
  3.611265E-01
  3.602393E-01
  3.607255E-01
  3.590146E-01
  3.601618E-01
  3.599697E-01
  3.605082E-01
  3.604411E-01
  3.613636E-01
  3.612168E-01
  3.613968E-01
  3.602721E-01
  3.597743E-01
  3.584638E-01
  3.581699E-01
  3.574261E-01
  3.581718E-01
  3.588821E-01
  3.610275E-01
  3.624668E-01
  3.644555E-01
  3.651308E-01
  3.660760E-01
  3.653164E-01
  3.641704E-01
  3.609486E-01
  3.580459E-01
  3.549845E-01
  3.543891E-01
  3.546942E-01
  3.567199E-01
  3.576213E-01
  3.583929E-01
  3.576175E-01
  3.578114E-01
  3.579795E-01
  3.597660E-01
  3.608320E-01
  3.620455E-01
  3.613406E-01
  3.606477E-01
  3.589549E-01
  3.585547E-01
  3.580252E-01
  3.588935E-01
  3.591629E-01
  3.602124E-01
  3.601952E-01
  3.606910E-01
  3.599629E-01
  3.596918E-01
  3.583495E-01
  3.579129E-01
  3.570681E-01
  3.576950E-01
  3.580438E-01
  3.594397E-01
  3.598360E-01
  3.607057E-01
  3.603585E-01
  3.604727E-01
  3.593084E-01
  3.585887E-01
  3.570058E-01
  3.568170E-01
  3.567360E-01
  3.582400E-01
  3.652394E-01
  3.643495E-01
  3.628768E-01
  3.612857E-01
  3.605554E-01
  3.600582E-01
  3.599033E-01
  3.593723E-01
  3.590045E-01
  3.584441E-01
  3.582509E-01
  3.579444E-01
  3.581035E-01
  3.584102E-01
  3.594886E-01
  3.607904E-01
  3.625721E-01
  3.640339E-01
  3.653983E-01
  3.658876E-01
  3.656851E-01
  3.640820E-01
  3.617380E-01
  3.587969E-01
  3.566165E-01
  3.553209E-01
  3.554648E-01
  3.561368E-01
  3.573010E-01
  3.582133E-01
  3.594240E-01
  3.604864E-01
  3.616289E-01
  3.618793E-01
  3.614916E-01
  3.602892E-01
  3.594775E-01
  3.590987E-01
  3.596276E-01
  3.601213E-01
  3.606818E-01
  3.608123E-01
  3.612560E-01
  3.615853E-01
  3.619488E-01
  3.613348E-01
  3.600596E-01
  3.580312E-01
  3.565066E-01
  3.556781E-01
  3.563515E-01
  3.579149E-01
  3.603314E-01
  3.622585E-01
  3.632998E-01
  3.624477E-01
  3.604094E-01
  3.575704E-01
  3.555641E-01
  3.548033E-01
  3.561121E-01
  3.586453E-01
  3.619326E-01
  3.642582E-01
  3.651070E-01
  3.645625E-01
  3.633778E-01
  3.607803E-01
  3.599823E-01
  3.592989E-01
  3.603073E-01
  3.602544E-01
  3.606678E-01
  3.594089E-01
  3.587426E-01
  3.571273E-01
  3.571978E-01
  3.573863E-01
  3.596460E-01
  3.612521E-01
  3.633226E-01
  3.633795E-01
  3.637910E-01
  3.631252E-01
  3.635597E-01
  3.624895E-01
  3.612965E-01
  3.580028E-01
  3.556092E-01
  3.532949E-01
  3.536142E-01
  3.540941E-01
  3.557530E-01
  3.559286E-01
  3.568590E-01
  3.572731E-01
  3.596343E-01
  3.614856E-01
  3.638084E-01
  3.636572E-01
  3.629871E-01
  3.604765E-01
  3.591421E-01
  3.576271E-01
  3.581147E-01
  3.583537E-01
  3.599683E-01
  3.604549E-01
  3.613631E-01
  3.603050E-01
  3.593416E-01
  3.569500E-01
  3.559868E-01
  3.551932E-01
  3.568585E-01
  3.585427E-01
  3.612690E-01
  3.619371E-01
  3.620817E-01
  3.599780E-01
  3.584713E-01
  3.562071E-01
  3.554825E-01
  3.544013E-01
  3.552781E-01
  3.564759E-01
  3.599085E-01
  3.625802E-01
  3.696671E-01
  3.670195E-01
  3.650072E-01
  3.610050E-01
  3.598801E-01
  3.578073E-01
  3.583869E-01
  3.572805E-01
  3.581899E-01
  3.570710E-01
  3.578619E-01
  3.567344E-01
  3.578478E-01
  3.574567E-01
  3.594514E-01
  3.595531E-01
  3.613138E-01
  3.606250E-01
  3.616662E-01
  3.607930E-01
  3.620116E-01
  3.610318E-01
  3.614227E-01
  3.591951E-01
  3.587767E-01
  3.568297E-01
  3.575809E-01
  3.569389E-01
  3.585332E-01
  3.583614E-01
  3.605712E-01
  3.612687E-01
  3.639332E-01
  3.637432E-01
  3.641225E-01
  3.613804E-01
  3.604688E-01
  3.582988E-01
  3.590288E-01
  3.583551E-01
  3.598542E-01
  3.595605E-01
  3.615298E-01
  3.615595E-01
  3.628945E-01
  3.608752E-01
  3.595196E-01
  3.558009E-01
  3.549219E-01
  3.538139E-01
  3.564532E-01
  3.582608E-01
  3.621059E-01
  3.629562E-01
  3.641233E-01
  3.616431E-01
  3.601585E-01
  3.567208E-01
  3.562486E-01
  3.554734E-01
  3.585276E-01
  3.610837E-01
  3.660380E-01
  3.679568E-01
  3.660402E-01
  3.640188E-01
  3.636332E-01
  3.597712E-01
  3.595327E-01
  3.572784E-01
  3.587670E-01
  3.574070E-01
  3.587989E-01
  3.567998E-01
  3.576133E-01
  3.555930E-01
  3.571806E-01
  3.565649E-01
  3.594760E-01
  3.591049E-01
  3.607605E-01
  3.583532E-01
  3.587506E-01
  3.569354E-01
  3.592538E-01
  3.589818E-01
  3.610612E-01
  3.589190E-01
  3.591459E-01
  3.567372E-01
  3.583243E-01
  3.575657E-01
  3.597194E-01
  3.583503E-01
  3.599219E-01
  3.591486E-01
  3.623350E-01
  3.627543E-01
  3.653694E-01
  3.633419E-01
  3.629243E-01
  3.589021E-01
  3.583151E-01
  3.557822E-01
  3.575062E-01
  3.572462E-01
  3.604880E-01
  3.604124E-01
  3.623226E-01
  3.597752E-01
  3.591681E-01
  3.553575E-01
  3.554058E-01
  3.539654E-01
  3.569848E-01
  3.577383E-01
  3.611966E-01
  3.605337E-01
  3.618042E-01
  3.596216E-01
  3.608181E-01
  3.595345E-01
  3.614189E-01
  3.599867E-01
  3.614464E-01
  3.603733E-01
  3.632217E-01
  3.634504E-01
  3.667844E-01
  3.634370E-01
  3.637070E-01
  3.597430E-01
  3.601736E-01
  3.567725E-01
  3.577495E-01
  3.548559E-01
  3.564250E-01
  3.543134E-01
  3.567632E-01
  3.554655E-01
  3.584963E-01
  3.573575E-01
  3.599763E-01
  3.577949E-01
  3.590847E-01
  3.559633E-01
  3.573410E-01
  3.554990E-01
  3.587120E-01
  3.582484E-01
  3.616907E-01
  3.603641E-01
  3.627098E-01
  3.608079E-01
  3.631504E-01
  3.613103E-01
  3.634797E-01
  3.615504E-01
  3.642140E-01
  3.631656E-01
  3.660760E-01
  3.636992E-01
  3.640491E-01
  3.594370E-01
  3.593537E-01
  3.563064E-01
  3.585240E-01
  3.572398E-01
  3.603188E-01
  3.594813E-01
  3.629963E-01
  3.621104E-01
  3.643265E-01
  3.607824E-01
  3.601800E-01
  3.553645E-01
  3.557616E-01
  3.536793E-01
  3.570805E-01
  3.570491E-01
  3.611270E-01
  3.606105E-01
  3.637162E-01
  3.622867E-01
  3.648451E-01
  3.631595E-01
  3.655415E-01
  3.636355E-01
  3.659324E-01
  3.642565E-01
  3.668907E-01
  3.651028E-01
  3.609407E-01
  3.596151E-01
  3.618376E-01
  3.593480E-01
  3.606693E-01
  3.579896E-01
  3.595130E-01
  3.569706E-01
  3.583999E-01
  3.557782E-01
  3.574559E-01
  3.555777E-01
  3.583562E-01
  3.574943E-01
  3.605902E-01
  3.588108E-01
  3.599486E-01
  3.562470E-01
  3.568761E-01
  3.547192E-01
  3.580468E-01
  3.579636E-01
  3.614692E-01
  3.598693E-01
  3.617417E-01
  3.597309E-01
  3.623447E-01
  3.609875E-01
  3.631738E-01
  3.605878E-01
  3.619871E-01
  3.598992E-01
  3.626001E-01
  3.613179E-01
  3.634780E-01
  3.605642E-01
  3.610252E-01
  3.573170E-01
  3.581881E-01
  3.559556E-01
  3.588885E-01
  3.586588E-01
  3.627740E-01
  3.621753E-01
  3.643396E-01
  3.609764E-01
  3.609167E-01
  3.569437E-01
  3.579196E-01