# vtk DataFile Version 2.0
title
ASCII
DATASET STRUCTURED_GRID
DIMENSIONS   64   64    1
POINTS   4096  float
  0.000000E+00  0.000000E+00  0.000000E+00
  0.000000E+00  3.906250E-01  0.000000E+00
  0.000000E+00  7.812500E-01  0.000000E+00
  0.000000E+00  1.171875E+00  0.000000E+00
  0.000000E+00  1.562500E+00  0.000000E+00
  0.000000E+00  1.953125E+00  0.000000E+00
  0.000000E+00  2.343750E+00  0.000000E+00
  0.000000E+00  2.734375E+00  0.000000E+00
  0.000000E+00  3.125000E+00  0.000000E+00
  0.000000E+00  3.515625E+00  0.000000E+00
  0.000000E+00  3.906250E+00  0.000000E+00
  0.000000E+00  4.296875E+00  0.000000E+00
  0.000000E+00  4.687500E+00  0.000000E+00
  0.000000E+00  5.078125E+00  0.000000E+00
  0.000000E+00  5.468750E+00  0.000000E+00
  0.000000E+00  5.859375E+00  0.000000E+00
  0.000000E+00  6.250000E+00  0.000000E+00
  0.000000E+00  6.640625E+00  0.000000E+00
  0.000000E+00  7.031250E+00  0.000000E+00
  0.000000E+00  7.421875E+00  0.000000E+00
  0.000000E+00  7.812500E+00  0.000000E+00
  0.000000E+00  8.203125E+00  0.000000E+00
  0.000000E+00  8.593750E+00  0.000000E+00
  0.000000E+00  8.984375E+00  0.000000E+00
  0.000000E+00  9.375000E+00  0.000000E+00
  0.000000E+00  9.765625E+00  0.000000E+00
  0.000000E+00  1.015625E+01  0.000000E+00
  0.000000E+00  1.054688E+01  0.000000E+00
  0.000000E+00  1.093750E+01  0.000000E+00
  0.000000E+00  1.132812E+01  0.000000E+00
  0.000000E+00  1.171875E+01  0.000000E+00
  0.000000E+00  1.210938E+01  0.000000E+00
  0.000000E+00  1.250000E+01  0.000000E+00
  0.000000E+00  1.289062E+01  0.000000E+00
  0.000000E+00  1.328125E+01  0.000000E+00
  0.000000E+00  1.367188E+01  0.000000E+00
  0.000000E+00  1.406250E+01  0.000000E+00
  0.000000E+00  1.445312E+01  0.000000E+00
  0.000000E+00  1.484375E+01  0.000000E+00
  0.000000E+00  1.523438E+01  0.000000E+00
  0.000000E+00  1.562500E+01  0.000000E+00
  0.000000E+00  1.601562E+01  0.000000E+00
  0.000000E+00  1.640625E+01  0.000000E+00
  0.000000E+00  1.679688E+01  0.000000E+00
  0.000000E+00  1.718750E+01  0.000000E+00
  0.000000E+00  1.757812E+01  0.000000E+00
  0.000000E+00  1.796875E+01  0.000000E+00
  0.000000E+00  1.835938E+01  0.000000E+00
  0.000000E+00  1.875000E+01  0.000000E+00
  0.000000E+00  1.914062E+01  0.000000E+00
  0.000000E+00  1.953125E+01  0.000000E+00
  0.000000E+00  1.992188E+01  0.000000E+00
  0.000000E+00  2.031250E+01  0.000000E+00
  0.000000E+00  2.070312E+01  0.000000E+00
  0.000000E+00  2.109375E+01  0.000000E+00
  0.000000E+00  2.148438E+01  0.000000E+00
  0.000000E+00  2.187500E+01  0.000000E+00
  0.000000E+00  2.226562E+01  0.000000E+00
  0.000000E+00  2.265625E+01  0.000000E+00
  0.000000E+00  2.304688E+01  0.000000E+00
  0.000000E+00  2.343750E+01  0.000000E+00
  0.000000E+00  2.382812E+01  0.000000E+00
  0.000000E+00  2.421875E+01  0.000000E+00
  0.000000E+00  2.460938E+01  0.000000E+00
  3.906250E-01  0.000000E+00  0.000000E+00
  3.906250E-01  3.906250E-01  0.000000E+00
  3.906250E-01  7.812500E-01  0.000000E+00
  3.906250E-01  1.171875E+00  0.000000E+00
  3.906250E-01  1.562500E+00  0.000000E+00
  3.906250E-01  1.953125E+00  0.000000E+00
  3.906250E-01  2.343750E+00  0.000000E+00
  3.906250E-01  2.734375E+00  0.000000E+00
  3.906250E-01  3.125000E+00  0.000000E+00
  3.906250E-01  3.515625E+00  0.000000E+00
  3.906250E-01  3.906250E+00  0.000000E+00
  3.906250E-01  4.296875E+00  0.000000E+00
  3.906250E-01  4.687500E+00  0.000000E+00
  3.906250E-01  5.078125E+00  0.000000E+00
  3.906250E-01  5.468750E+00  0.000000E+00
  3.906250E-01  5.859375E+00  0.000000E+00
  3.906250E-01  6.250000E+00  0.000000E+00
  3.906250E-01  6.640625E+00  0.000000E+00
  3.906250E-01  7.031250E+00  0.000000E+00
  3.906250E-01  7.421875E+00  0.000000E+00
  3.906250E-01  7.812500E+00  0.000000E+00
  3.906250E-01  8.203125E+00  0.000000E+00
  3.906250E-01  8.593750E+00  0.000000E+00
  3.906250E-01  8.984375E+00  0.000000E+00
  3.906250E-01  9.375000E+00  0.000000E+00
  3.906250E-01  9.765625E+00  0.000000E+00
  3.906250E-01  1.015625E+01  0.000000E+00
  3.906250E-01  1.054688E+01  0.000000E+00
  3.906250E-01  1.093750E+01  0.000000E+00
  3.906250E-01  1.132812E+01  0.000000E+00
  3.906250E-01  1.171875E+01  0.000000E+00
  3.906250E-01  1.210938E+01  0.000000E+00
  3.906250E-01  1.250000E+01  0.000000E+00
  3.906250E-01  1.289062E+01  0.000000E+00
  3.906250E-01  1.328125E+01  0.000000E+00
  3.906250E-01  1.367188E+01  0.000000E+00
  3.906250E-01  1.406250E+01  0.000000E+00
  3.906250E-01  1.445312E+01  0.000000E+00
  3.906250E-01  1.484375E+01  0.000000E+00
  3.906250E-01  1.523438E+01  0.000000E+00
  3.906250E-01  1.562500E+01  0.000000E+00
  3.906250E-01  1.601562E+01  0.000000E+00
  3.906250E-01  1.640625E+01  0.000000E+00
  3.906250E-01  1.679688E+01  0.000000E+00
  3.906250E-01  1.718750E+01  0.000000E+00
  3.906250E-01  1.757812E+01  0.000000E+00
  3.906250E-01  1.796875E+01  0.000000E+00
  3.906250E-01  1.835938E+01  0.000000E+00
  3.906250E-01  1.875000E+01  0.000000E+00
  3.906250E-01  1.914062E+01  0.000000E+00
  3.906250E-01  1.953125E+01  0.000000E+00
  3.906250E-01  1.992188E+01  0.000000E+00
  3.906250E-01  2.031250E+01  0.000000E+00
  3.906250E-01  2.070312E+01  0.000000E+00
  3.906250E-01  2.109375E+01  0.000000E+00
  3.906250E-01  2.148438E+01  0.000000E+00
  3.906250E-01  2.187500E+01  0.000000E+00
  3.906250E-01  2.226562E+01  0.000000E+00
  3.906250E-01  2.265625E+01  0.000000E+00
  3.906250E-01  2.304688E+01  0.000000E+00
  3.906250E-01  2.343750E+01  0.000000E+00
  3.906250E-01  2.382812E+01  0.000000E+00
  3.906250E-01  2.421875E+01  0.000000E+00
  3.906250E-01  2.460938E+01  0.000000E+00
  7.812500E-01  0.000000E+00  0.000000E+00
  7.812500E-01  3.906250E-01  0.000000E+00
  7.812500E-01  7.812500E-01  0.000000E+00
  7.812500E-01  1.171875E+00  0.000000E+00
  7.812500E-01  1.562500E+00  0.000000E+00
  7.812500E-01  1.953125E+00  0.000000E+00
  7.812500E-01  2.343750E+00  0.000000E+00
  7.812500E-01  2.734375E+00  0.000000E+00
  7.812500E-01  3.125000E+00  0.000000E+00
  7.812500E-01  3.515625E+00  0.000000E+00
  7.812500E-01  3.906250E+00  0.000000E+00
  7.812500E-01  4.296875E+00  0.000000E+00
  7.812500E-01  4.687500E+00  0.000000E+00
  7.812500E-01  5.078125E+00  0.000000E+00
  7.812500E-01  5.468750E+00  0.000000E+00
  7.812500E-01  5.859375E+00  0.000000E+00
  7.812500E-01  6.250000E+00  0.000000E+00
  7.812500E-01  6.640625E+00  0.000000E+00
  7.812500E-01  7.031250E+00  0.000000E+00
  7.812500E-01  7.421875E+00  0.000000E+00
  7.812500E-01  7.812500E+00  0.000000E+00
  7.812500E-01  8.203125E+00  0.000000E+00
  7.812500E-01  8.593750E+00  0.000000E+00
  7.812500E-01  8.984375E+00  0.000000E+00
  7.812500E-01  9.375000E+00  0.000000E+00
  7.812500E-01  9.765625E+00  0.000000E+00
  7.812500E-01  1.015625E+01  0.000000E+00
  7.812500E-01  1.054688E+01  0.000000E+00
  7.812500E-01  1.093750E+01  0.000000E+00
  7.812500E-01  1.132812E+01  0.000000E+00
  7.812500E-01  1.171875E+01  0.000000E+00
  7.812500E-01  1.210938E+01  0.000000E+00
  7.812500E-01  1.250000E+01  0.000000E+00
  7.812500E-01  1.289062E+01  0.000000E+00
  7.812500E-01  1.328125E+01  0.000000E+00
  7.812500E-01  1.367188E+01  0.000000E+00
  7.812500E-01  1.406250E+01  0.000000E+00
  7.812500E-01  1.445312E+01  0.000000E+00
  7.812500E-01  1.484375E+01  0.000000E+00
  7.812500E-01  1.523438E+01  0.000000E+00
  7.812500E-01  1.562500E+01  0.000000E+00
  7.812500E-01  1.601562E+01  0.000000E+00
  7.812500E-01  1.640625E+01  0.000000E+00
  7.812500E-01  1.679688E+01  0.000000E+00
  7.812500E-01  1.718750E+01  0.000000E+00
  7.812500E-01  1.757812E+01  0.000000E+00
  7.812500E-01  1.796875E+01  0.000000E+00
  7.812500E-01  1.835938E+01  0.000000E+00
  7.812500E-01  1.875000E+01  0.000000E+00
  7.812500E-01  1.914062E+01  0.000000E+00
  7.812500E-01  1.953125E+01  0.000000E+00
  7.812500E-01  1.992188E+01  0.000000E+00
  7.812500E-01  2.031250E+01  0.000000E+00
  7.812500E-01  2.070312E+01  0.000000E+00
  7.812500E-01  2.109375E+01  0.000000E+00
  7.812500E-01  2.148438E+01  0.000000E+00
  7.812500E-01  2.187500E+01  0.000000E+00
  7.812500E-01  2.226562E+01  0.000000E+00
  7.812500E-01  2.265625E+01  0.000000E+00
  7.812500E-01  2.304688E+01  0.000000E+00
  7.812500E-01  2.343750E+01  0.000000E+00
  7.812500E-01  2.382812E+01  0.000000E+00
  7.812500E-01  2.421875E+01  0.000000E+00
  7.812500E-01  2.460938E+01  0.000000E+00
  1.171875E+00  0.000000E+00  0.000000E+00
  1.171875E+00  3.906250E-01  0.000000E+00
  1.171875E+00  7.812500E-01  0.000000E+00
  1.171875E+00  1.171875E+00  0.000000E+00
  1.171875E+00  1.562500E+00  0.000000E+00
  1.171875E+00  1.953125E+00  0.000000E+00
  1.171875E+00  2.343750E+00  0.000000E+00
  1.171875E+00  2.734375E+00  0.000000E+00
  1.171875E+00  3.125000E+00  0.000000E+00
  1.171875E+00  3.515625E+00  0.000000E+00
  1.171875E+00  3.906250E+00  0.000000E+00
  1.171875E+00  4.296875E+00  0.000000E+00
  1.171875E+00  4.687500E+00  0.000000E+00
  1.171875E+00  5.078125E+00  0.000000E+00
  1.171875E+00  5.468750E+00  0.000000E+00
  1.171875E+00  5.859375E+00  0.000000E+00
  1.171875E+00  6.250000E+00  0.000000E+00
  1.171875E+00  6.640625E+00  0.000000E+00
  1.171875E+00  7.031250E+00  0.000000E+00
  1.171875E+00  7.421875E+00  0.000000E+00
  1.171875E+00  7.812500E+00  0.000000E+00
  1.171875E+00  8.203125E+00  0.000000E+00
  1.171875E+00  8.593750E+00  0.000000E+00
  1.171875E+00  8.984375E+00  0.000000E+00
  1.171875E+00  9.375000E+00  0.000000E+00
  1.171875E+00  9.765625E+00  0.000000E+00
  1.171875E+00  1.015625E+01  0.000000E+00
  1.171875E+00  1.054688E+01  0.000000E+00
  1.171875E+00  1.093750E+01  0.000000E+00
  1.171875E+00  1.132812E+01  0.000000E+00
  1.171875E+00  1.171875E+01  0.000000E+00
  1.171875E+00  1.210938E+01  0.000000E+00
  1.171875E+00  1.250000E+01  0.000000E+00
  1.171875E+00  1.289062E+01  0.000000E+00
  1.171875E+00  1.328125E+01  0.000000E+00
  1.171875E+00  1.367188E+01  0.000000E+00
  1.171875E+00  1.406250E+01  0.000000E+00
  1.171875E+00  1.445312E+01  0.000000E+00
[...]
POINT_DATA   4096
SCALARS CON  float  1
LOOKUP_TABLE default
  4.178172E-01
  4.168333E-01
  4.219923E-01
  4.201388E-01
  4.207221E-01
  4.148078E-01
  4.160932E-01
  4.149935E-01
  4.201716E-01
  4.182735E-01
  4.193289E-01
  4.142885E-01
  4.155319E-01
  4.127040E-01
  4.158465E-01
  4.142144E-01
  4.186277E-01
  4.179021E-01
  4.213193E-01
  4.173241E-01
  4.173310E-01
  4.122034E-01
  4.133936E-01
  4.099681E-01
  4.117925E-01
  4.082550E-01
  4.109021E-01
  4.103223E-01
  4.168430E-01
  4.175952E-01
  4.206619E-01
  4.152975E-01
  4.151263E-01
  4.123907E-01
  4.174992E-01
  4.169703E-01
  4.191129E-01
  4.137008E-01
  4.136195E-01
  4.097783E-01
  4.124608E-01
  4.099361E-01
  4.122164E-01
  4.089822E-01
  4.112592E-01
  4.088797E-01
  4.130952E-01
  4.139703E-01
  4.212654E-01
  4.215073E-01
  4.228677E-01
  4.152451E-01
  4.129045E-01
  4.086576E-01
  4.141109E-01
  4.173386E-01
  4.259574E-01
  4.260961E-01
  4.274537E-01
  4.210993E-01
  4.206313E-01
  4.165214E-01
  4.185288E-01
  4.151668E-01
  4.180649E-01
  4.184355E-01
  4.250658E-01
  4.252639E-01
  4.249480E-01
  4.168154E-01
  4.143919E-01
  4.117443E-01
  4.163317E-01
  4.161482E-01
  4.185873E-01
  4.159157E-01
  4.180674E-01
  4.156541E-01
  4.166289E-01
  4.130775E-01
  4.157876E-01
  4.164264E-01
  4.216236E-01
  4.197563E-01
  4.191816E-01
  4.131713E-01
  4.130441E-01
  4.107773E-01
  4.139744E-01
  4.123431E-01
  4.143598E-01
  4.123349E-01
  4.160412E-01
  4.161300E-01
  4.196079E-01
  4.165976E-01
  4.169039E-01
  4.134784E-01
  4.156210E-01
  4.135259E-01
  4.150941E-01
  4.119790E-01
  4.139706E-01
  4.121714E-01
  4.140568E-01
  4.100703E-01
  4.098651E-01
  4.062183E-01
  4.083596E-01
  4.071678E-01
  4.115262E-01
  4.135566E-01
  4.214502E-01
  4.231436E-01
  4.242698E-01
  4.166474E-01
  4.137646E-01
  4.111042E-01
  4.179779E-01
  4.226261E-01
  4.296662E-01
  4.275213E-01
  4.257794E-01
  4.187677E-01
  4.183591E-01
  4.159935E-01
  4.185054E-01
  4.158278E-01
  4.115384E-01
  4.172763E-01
  4.250048E-01
  4.269855E-01
  4.247943E-01
  4.176885E-01
  4.139217E-01
  4.124124E-01
  4.153654E-01
  4.167085E-01
  4.185616E-01
  4.178377E-01
  4.186200E-01
  4.173073E-01
  4.171797E-01
  4.154642E-01
  4.166865E-01
  4.174825E-01
  4.200195E-01
  4.193058E-01
  4.185384E-01
  4.152890E-01
  4.142719E-01
  4.125392E-01
  4.132015E-01
  4.121689E-01
  4.126205E-01
  4.114912E-01
  4.126741E-01
  4.123939E-01
  4.131681E-01
  4.113137E-01
  4.115202E-01
  4.118034E-01
  4.153506E-01
  4.166012E-01
  4.172189E-01
  4.141939E-01
  4.129728E-01
  4.112144E-01
  4.115573E-01
  4.092230E-01
  4.076544E-01
  4.048239E-01
  4.054850E-01
  4.065314E-01
  4.110958E-01
  4.153551E-01
  4.215379E-01
  4.236477E-01
  4.231313E-01
  4.174819E-01
  4.138979E-01
  4.122451E-01
  4.166231E-01
  4.216525E-01
  4.275228E-01
  4.277872E-01
  4.251384E-01
  4.179496E-01
  4.127164E-01
  4.078633E-01
  4.070902E-01
  4.069670E-01
  4.112892E-01
  4.182895E-01
  4.239736E-01
  4.276465E-01
  4.229472E-01
  4.163779E-01
  4.093929E-01
  4.089179E-01
  4.103499E-01
  4.147755E-01
  4.166745E-01
  4.197059E-01
  4.199266E-01
  4.204262E-01
  4.172101E-01
  4.157005E-01
  4.142622E-01
  4.172387E-01
  4.190007E-01
  4.210183E-01
  4.187765E-01
  4.174562E-01
  4.149809E-01
  4.158490E-01
  4.155741E-01
  4.167279E-01
  4.146683E-01
  4.135666E-01
  4.109837E-01
  4.119562E-01
  4.125510E-01
  4.151527E-01
  4.146717E-01
  4.149175E-01
  4.128844E-01
  4.129932E-01
  4.116802E-01
  4.131053E-01
  4.135729E-01
  4.158583E-01
  4.143687E-01
  4.125037E-01
  4.084209E-01
  4.084293E-01
  4.091399E-01
  4.125701E-01
  4.134822E-01
  4.162017E-01
  4.176616E-01
  4.204920E-01
  4.187156E-01
  4.162802E-01
  4.124616E-01
  4.141833E-01
  4.177978E-01
  4.242993E-01
  4.263206E-01
  4.259330E-01
  4.201361E-01
  4.153805E-01
  4.101716E-01
  4.089820E-01
  4.074204E-01
  4.091067E-01
  4.084490E-01
  4.177115E-01
  4.208152E-01
  4.245278E-01
  4.177793E-01
  4.141593E-01
  4.072893E-01
  4.091153E-01
  4.086234E-01
  4.144044E-01
  4.149115E-01
  4.196533E-01
  4.177017E-01
  4.194000E-01
  4.151966E-01
  4.167414E-01
  4.144569E-01
  4.183092E-01
  4.169516E-01
  4.200475E-01
  4.172189E-01
  4.190716E-01
  4.152168E-01
  4.160829E-01
  4.118585E-01
  4.133657E-01
  4.101476E-01
  4.119907E-01
  4.087014E-01
  4.112908E-01
  4.098000E-01
  4.137497E-01
  4.119115E-01
  4.146895E-01
  4.124605E-01
  4.156098E-01
  4.132298E-01
  4.155081E-01
  4.126936E-01
  4.152046E-01
  4.118635E-01
  4.125866E-01
  4.083761E-01
  4.114729E-01
  4.118889E-01
  4.177891E-01
  4.165148E-01
  4.183937E-01
  4.146955E-01
  4.166273E-01
  4.132248E-01
  4.143210E-01
  4.104604E-01
  4.132862E-01
  4.129197E-01
  4.187684E-01
  4.189499E-01
  4.224408E-01
  4.181742E-01
  4.169747E-01
  4.097359E-01
  4.082068E-01
  4.034080E-01
  4.067024E-01
  4.129488E-01
  4.189016E-01
  4.188821E-01
  4.221789E-01
  4.153482E-01
  4.125566E-01
  4.049852E-01
  4.066262E-01
  4.052759E-01
  4.115983E-01
  4.122531E-01
  4.182508E-01
  4.164128E-01
  4.184946E-01
  4.132442E-01
  4.148158E-01
  4.126331E-01
  4.184915E-01
  4.183318E-01
  4.225648E-01
  4.186552E-01
  4.196509E-01
  4.141884E-01
  4.149768E-01
  4.104217E-01
  4.129316E-01
  4.099796E-01
  4.128559E-01
  4.096962E-01
  4.139399E-01
  4.140743E-01
  4.203853E-01
  4.178994E-01
  4.181897E-01
  4.113590E-01
  4.122771E-01
  4.097733E-01
  4.151241E-01
  4.147326E-01
  4.190364E-01
  4.146658E-01
  4.146326E-01
  4.099012E-01
  4.151768E-01
  4.173811E-01
  4.243363E-01
  4.204670E-01
  4.191665E-01
  4.120365E-01
  4.133428E-01
  4.100518E-01
  4.126876E-01
  4.092788E-01
  4.130701E-01
  4.121498E-01
  4.172818E-01
  4.149836E-01
  4.174065E-01
  4.134474E-01
  4.161331E-01
  4.132376E-01
  4.161754E-01
  4.124643E-01
  4.149623E-01
  4.119058E-01
  4.166295E-01
  4.161744E-01
  4.185132E-01
  4.138390E-01
  4.133359E-01
  4.087895E-01
  4.103591E-01
  4.084381E-01
  4.125221E-01
  4.124097E-01
  4.165063E-01
  4.141131E-01
  4.153327E-01
  4.120921E-01
  4.154316E-01
  4.156179E-01
  4.209802E-01
  4.203444E-01
  4.229492E-01
  4.193675E-01
  4.196351E-01
  4.138312E-01
  4.119927E-01
  4.060147E-01
  4.072455E-01
  4.062241E-01
  4.109633E-01
  4.105235E-01
  4.148111E-01
  4.148072E-01
  4.193689E-01
  4.171660E-01
  4.179821E-01
  4.140887E-01
  4.167008E-01
  4.155775E-01
  4.188933E-01
  4.162253E-01
  4.173993E-01
  4.129208E-01
  4.131585E-01
  4.101287E-01
  4.150553E-01
  4.176145E-01
  4.241118E-01
  4.215676E-01
  4.200849E-01
  4.131722E-01
  4.131888E-01
  4.104394E-01
  4.129590E-01
  4.101100E-01
  4.118178E-01
  4.090753E-01
  4.117346E-01
  4.101034E-01
  4.138230E-01
  4.130889E-01
  4.169882E-01
  4.149897E-01
  4.163945E-01
  4.121719E-01
  4.135121E-01
  4.140775E-01
  4.149123E-01
  4.147277E-01
  4.173453E-01
  4.159958E-01
  4.158254E-01
  4.125246E-01
  4.124744E-01
  4.109869E-01
  4.133530E-01
  4.138017E-01
  4.166003E-01
  4.154695E-01
  4.156753E-01
  4.131610E-01
  4.149051E-01
  4.163873E-01
  4.218325E-01
  4.236021E-01
  4.252469E-01
  4.214465E-01
  4.188973E-01
  4.135384E-01
  4.114545E-01
  4.081754E-01
  4.096107E-01
  4.101149E-01
  4.134985E-01
  4.137505E-01
  4.171004E-01
  4.191661E-01
  4.238162E-01
  4.229120E-01
  4.211698E-01
  4.159701E-01
  4.157315E-01
  4.156623E-01
  4.192341E-01
  4.191819E-01
  4.199010E-01
  4.161572E-01
  4.145283E-01
  4.120192E-01
  4.154594E-01
  4.183641E-01
  4.224972E-01
  4.200773E-01
  4.177070E-01
  4.133884E-01
  4.140774E-01
  4.133040E-01
  4.145224E-01
  4.124035E-01
  4.135397E-01
  4.130996E-01
  4.151261E-01
  4.130871E-01
  4.128123E-01
  4.109526E-01
  4.139808E-01
  4.157764E-01
  4.194521E-01
  4.181212E-01
  4.174672E-01
  4.092723E-01
  4.107882E-01
  4.123217E-01
  4.153446E-01
  4.167034E-01
  4.185720E-01
  4.183478E-01
  4.185060E-01
  4.171434E-01
  4.175080E-01
  4.172310E-01
  4.178569E-01
  4.161978E-01
  4.153105E-01
  4.142584E-01
  4.164062E-01
  4.187962E-01
  4.223381E-01
  4.230709E-01
  4.229262E-01
  4.199823E-01
  4.175880E-01
  4.137456E-01
  4.112803E-01
  4.087491E-01
  4.096840E-01
  4.114435E-01
  4.146636E-01
  4.153746E-01
  4.164009E-01
  4.166086E-01
  4.185534E-01
  4.186629E-01
  4.191346E-01
  4.187526E-01
  4.207594E-01
  4.215128E-01
  4.216300E-01
  4.184112E-01
  4.158298E-01
  4.129377E-01
  4.126180E-01
  4.122452E-01
  4.139982E-01
  4.148999E-01
  4.164129E-01
  4.154778E-01
  4.152119E-01
  4.144896E-01
  4.161195E-01
  4.165302E-01
  4.169178E-01
  4.150350E-01
  4.147240E-01
  4.144027E-01
  4.158648E-01
  4.153967E-01
  4.151191E-01
  4.134682E-01
  4.137619E-01
  4.133451E-01
  4.136507E-01
  4.116970E-01
  4.106172E-01
  4.100183E-01
  4.098298E-01
  4.115964E-01
  4.153712E-01
  4.179399E-01
  4.194587E-01
  4.188803E-01
  4.184021E-01
  4.175880E-01
  4.181146E-01
  4.185184E-01
  4.193095E-01
  4.184005E-01
  4.170125E-01
  4.148702E-01
  4.147010E-01
  4.160714E-01
  4.195581E-01
  4.218187E-01
  4.221840E-01
  4.192220E-01
  4.159046E-01
  4.129030E-01
  4.124151E-01
  4.131818E-01
  4.159270E-01
  4.181713E-01
  4.195694E-01
  4.183324E-01
  4.172540E-01
  4.170051E-01
  4.187848E-01
  4.193752E-01
  4.189106E-01
  4.172735E-01
  4.174383E-01
  4.180476E-01
  4.187636E-01
  4.172878E-01
  4.154660E-01
  4.133030E-01
  4.129535E-01
  4.132863E-01
  4.148486E-01
  4.150867E-01
  4.144583E-01
  4.124648E-01
  4.123318E-01
  4.139552E-01
  4.174147E-01
  4.188440E-01
  4.183156E-01
  4.162452E-01
  4.166423E-01
  4.188558E-01
  4.217622E-01
  4.211556E-01
  4.180441E-01
  4.138071E-01
  4.124844E-01
  4.131328E-01
  4.149758E-01
  4.145241E-01
  4.127152E-01
  4.070213E-01
  4.085955E-01
  4.106193E-01
  4.141420E-01
  4.164030E-01
  4.188596E-01
  4.192051E-01
  4.194597E-01
  4.183254E-01
  4.186714E-01
  4.185955E-01
  4.190922E-01
  4.173179E-01
  4.157017E-01
  4.136898E-01
  4.142926E-01
  4.154541E-01
  4.181672E-01
  4.192005E-01
  4.195947E-01
  4.172958E-01
  4.151279E-01
  4.122634E-01
  4.116191E-01
  4.118990E-01
  4.151087E-01
  4.180656E-01
  4.205094E-01
  4.189931E-01
  4.163586E-01
  4.129477E-01
  4.122651E-01
  4.122556E-01
  4.142628E-01
  4.160543E-01
  4.190214E-01
  4.196224E-01
  4.183900E-01
  4.138335E-01
  4.103685E-01
  4.083771E-01
  4.101849E-01
  4.122018E-01
  4.142655E-01
  4.134818E-01
  4.126485E-01
  4.115406E-01
  4.133475E-01
  4.158182E-01
  4.191639E-01
  4.194522E-01
  4.182647E-01
  4.153091E-01
  4.148985E-01
  4.159776E-01
  4.192182E-01
  4.203790E-01
  4.203028E-01
  4.177444E-01
  4.160728E-01
  4.138195E-01
  4.124859E-01
  4.097747E-01
  4.082467E-01
  4.103816E-01
  4.107281E-01
  4.114938E-01
  4.150711E-01
  4.163374E-01
  4.177495E-01
  4.159871E-01
  4.155292E-01
  4.139603E-01
  4.153118E-01
  4.158044E-01
  4.178174E-01
  4.166962E-01
  4.157167E-01
  4.124950E-01
  4.122269E-01
  4.126105E-01
  4.167664E-01
  4.193018E-01
  4.213949E-01
  4.186214E-01
  4.157513E-01
  4.116769E-01
  4.116580E-01
  4.126292E-01
  4.171611E-01
  4.199377E-01
  4.223700E-01
  4.201238E-01
  4.180568E-01
  4.149452E-01
  4.151785E-01
  4.143020E-01
  4.146697E-01
  4.130828E-01
  4.139820E-01
  4.138678E-01
  4.150266E-01
  4.131154E-01
  4.121546E-01
  4.100913E-01
  4.114075E-01
  4.124669E-01
  4.154101E-01
  4.153097E-01
  4.154205E-01
  4.136314E-01
  4.150889E-01
  4.164443E-01
  4.193065E-01
  4.180433E-01
  4.161190E-01
  4.124658E-01
  4.131828E-01
  4.151512E-01
  4.196069E-01
  4.204128E-01
  4.204540E-01
  4.178405E-01
  4.178389E-01
  4.170871E-01
  4.177965E-01
  4.153748E-01
  4.135731E-01
  4.087096E-01
  4.112208E-01
  4.116372E-01
  4.147293E-01
  4.150651E-01
  4.174501E-01
  4.160378E-01
  4.160794E-01
  4.133423E-01
  4.142805E-01
  4.137411E-01
  4.156943E-01
  4.137640E-01
  4.135675E-01
  4.113433E-01
  4.133050E-01
  4.140081E-01
  4.177951E-01
  4.185724E-01
  4.208565E-01
  4.187671E-01
  4.175385E-01
  4.127694E-01
  4.112152E-01
  4.091144E-01
  4.122153E-01
  4.143673E-01
  4.186566E-01
  4.179433E-01
  4.174005E-01
  4.133888E-01
  4.128632E-01
  4.111697E-01
  4.132206E-01
  4.133501E-01
  4.162167E-01
  4.155962E-01
  4.158672E-01
  4.120870E-01
  4.110278E-01
  4.089793E-01
  4.113506E-01
  4.118326E-01
  4.143993E-01
  4.135319E-01
  4.151461E-01
  4.147393E-01
  4.174849E-01
  4.172315E-01
  4.181921E-01
  4.148413E-01
  4.133051E-01
  4.098128E-01
  4.106423E-01
  4.107112E-01
  4.145721E-01
  4.160950E-01
  4.197701E-01
  4.197485E-01
  4.207824E-01
  4.173786E-01
  4.153398E-01
  4.107305E-01
  4.101063E-01
  4.127656E-01
  4.136860E-01
  4.131449E-01
  4.156176E-01
  4.157834E-01
  4.171492E-01
  4.147761E-01
  4.138817E-01
  4.111479E-01
  4.119725E-01
  4.117298E-01
  4.139744E-01
  4.131648E-01
  4.137003E-01
  4.118631E-01
  4.131793E-01
  4.135594E-01
  4.172521E-01
  4.188719E-01
  4.217802E-01
  4.203566E-01
  4.190736E-01
  4.144698E-01
  4.127137E-01
  4.104097E-01
  4.122767E-01
  4.131279E-01
  4.162727E-01
  4.161485E-01
  4.173051E-01
  4.160283E-01
  4.173283E-01
  4.160594E-01
  4.160126E-01
  4.129735E-01
  4.127091E-01
  4.114997E-01
  4.135866E-01
  4.135899E-01
  4.153917E-01
  4.142470E-01
  4.149290E-01
  4.134658E-01
  4.148456E-01
  4.144127E-01
  4.161611E-01
  4.151988E-01
  4.161454E-01
  4.144889E-01
  4.144751E-01
  4.114648E-01
  4.107966E-01
  4.092861E-01
  4.120282E-01
  4.136142E-01
  4.169736E-01
  4.167169E-01
  4.178118E-01
  4.165131E-01
  4.175871E-01
  4.161311E-01
  4.165033E-01
  4.143734E-01
  4.145823E-01
  4.130495E-01
  4.144312E-01
  4.139256E-01
  4.141508E-01
  4.146513E-01
  4.163609E-01
  4.165727E-01
  4.160261E-01
  4.140261E-01
  4.131611E-01
  4.123880E-01
  4.124718E-01
  4.116463E-01
  4.119900E-01
  4.129802E-01
  4.156321E-01
  4.171087E-01
  4.180298E-01
  4.178044E-01
  4.189184E-01
  4.196243E-01
  4.197400E-01
  4.168290E-01
  4.130130E-01
  4.088306E-01
  4.074109E-01
  4.078958E-01
  4.106979E-01
  4.125883E-01
  4.136472E-01
  4.127336E-01
  4.125652E-01
  4.126895E-01
  4.143225E-01
  4.152485E-01
  4.161334E-01
  4.153235E-01
  4.145585E-01
  4.132730E-01
  4.135457E-01
  4.138202E-01
  4.146007E-01
  4.139008E-01
  4.135278E-01
  4.129835E-01
  4.139113E-01
  4.141920E-01
  4.142846E-01
  4.125734E-01
  4.111350E-01
  4.096699E-01
  4.103622E-01
  4.117242E-01
  4.140989E-01
  4.149260E-01
  4.153587E-01
  4.147859E-01
  4.152423E-01
  4.148784E-01
  4.141170E-01
  4.115053E-01
  4.098089E-01
  4.092126E-01
  4.112492E-01
  4.203021E-01
  4.181789E-01
  4.162377E-01
  4.141518E-01
  4.147313E-01
  4.146446E-01
  4.152533E-01
  4.140889E-01
  4.139558E-01
  4.128142E-01
  4.129736E-01
  4.119822E-01
  4.123975E-01
  4.123808E-01
  4.145292E-01
  4.159463E-01
  4.179774E-01
  4.178982E-01
  4.187711E-01
  4.189187E-01
  4.202406E-01
  4.191698E-01
  4.175257E-01
  4.136356E-01
  4.111290E-01
  4.087028E-01
  4.091347E-01
  4.097130E-01
  4.117383E-01
  4.120752E-01
  4.133151E-01
  4.138349E-01
  4.159086E-01
  4.161472E-01
  4.161160E-01
  4.138809E-01
  4.130631E-01
  4.123316E-01
  4.141201E-01
  4.151791E-01
  4.166006E-01
  4.155428E-01
  4.152254E-01
  4.145326E-01
  4.158407E-01
  4.154437E-01
  4.146056E-01
  4.114813E-01
  4.099403E-01
  4.086628E-01
  4.100604E-01
  4.115788E-01
  4.153082E-01
  4.179930E-01
  4.203188E-01
  4.186995E-01
  4.159971E-01
  4.116162E-01
  4.094154E-01
  4.076322E-01
  4.088073E-01
  4.107936E-01
  4.153992E-01
  4.184673E-01
  4.221770E-01
  4.202738E-01
  4.173243E-01
  4.131881E-01
  4.129348E-01
  4.131089E-01
  4.153477E-01
  4.153354E-01
  4.160751E-01
  4.146673E-01
  4.142768E-01
  4.117319E-01
  4.110038E-01
  4.104934E-01
  4.140911E-01
  4.172216E-01
  4.203479E-01
  4.190371E-01
  4.179984E-01
  4.164368E-01
  4.180000E-01
  4.177598E-01
  4.170268E-01
  4.125743E-01
  4.092626E-01
  4.059771E-01
  4.068761E-01
  4.081329E-01
  4.108532E-01
  4.102662E-01
  4.100281E-01
  4.091616E-01
  4.122655E-01
  4.153265E-01
  4.191492E-01
  4.188191E-01
  4.176413E-01
  4.139893E-01
  4.127027E-01
  4.113504E-01
  4.126575E-01
  4.126471E-01
  4.141908E-01
  4.143670E-01
  4.161766E-01
  4.154920E-01
  4.147040E-01
  4.112006E-01
  4.097719E-01
  4.086493E-01
  4.112311E-01
  4.136375E-01
  4.176875E-01
  4.186506E-01
  4.186665E-01
  4.149624E-01
  4.123977E-01
  4.092081E-01
  4.085606E-01
  4.067497E-01
  4.072885E-01
  4.084084E-01
  4.137713E-01
  4.183811E-01
  4.268328E-01
  4.228982E-01
  4.186327E-01
  4.143184E-01
  4.131366E-01
  4.119204E-01
  4.123489E-01
  4.119545E-01
  4.131361E-01
  4.130067E-01
  4.133397E-01
  4.116593E-01
  4.111405E-01
  4.105102E-01
  4.126951E-01
  4.145830E-01
  4.170580E-01
  4.167761E-01
  4.166872E-01
  4.155467E-01
  4.161889E-01
  4.155998E-01
  4.154403E-01
  4.131964E-01
  4.119138E-01
  4.101548E-01
  4.109659E-01
  4.116035E-01
  4.132059E-01
  4.125980E-01
  4.130787E-01
  4.138303E-01
  4.173329E-01
  4.192044E-01
  4.198119E-01
  4.167658E-01
  4.144480E-01
  4.122894E-01
  4.129727E-01
  4.130162E-01
  4.137521E-01
  4.129720E-01
  4.143348E-01
  4.159880E-01
  4.188171E-01
  4.179135E-01
  4.150499E-01
  4.100395E-01
  4.082494E-01
  4.083519E-01
  4.116409E-01
  4.141598E-01
  4.174407E-01
  4.184860E-01
  4.189101E-01
  4.159323E-01
  4.129056E-01
  4.091039E-01
  4.080672E-01
  4.077204E-01
  4.106701E-01
  4.147201E-01
  4.213262E-01
  4.254406E-01
  4.223991E-01
  4.202181E-01
  4.175780E-01
  4.134556E-01
  4.125191E-01
  4.114759E-01
  4.125730E-01
  4.119558E-01
  4.128028E-01
  4.120393E-01
  4.125424E-01
  4.107301E-01
  4.102182E-01
  4.091286E-01
  4.115114E-01
  4.132809E-01
  4.154783E-01
  4.136989E-01
  4.122932E-01
  4.103743E-01
  4.122161E-01
  4.135536E-01
  4.155136E-01
  4.137922E-01
  4.124100E-01
  4.101301E-01
  4.115160E-01
  4.128128E-01
  4.151070E-01
  4.137682E-01
  4.130752E-01
  4.123421E-01
  4.158107E-01
  4.185610E-01
  4.211125E-01
  4.191585E-01
  4.170113E-01
  4.132035E-01
  4.119445E-01
  4.101888E-01
  4.109645E-01
  4.110557E-01
  4.136606E-01
  4.151058E-01
  4.173369E-01
  4.158201E-01
  4.137532E-01
  4.095575E-01
  4.084243E-01
  4.080596E-01
  4.110766E-01
  4.130276E-01
  4.158332E-01
  4.154056E-01
  4.149107E-01
  4.122922E-01
  4.124210E-01
  4.126918E-01
  4.151248E-01
  4.149377E-01
  4.153332E-01
  4.147649E-01
  4.176983E-01
  4.199841E-01
  4.208817E-01
  4.171637E-01
  4.170237E-01
  4.136664E-01
  4.144830E-01
  4.113794E-01
  4.117643E-01
  4.085926E-01
  4.098544E-01
  4.081677E-01
  4.107828E-01
  4.098652E-01
  4.125999E-01
  4.113055E-01
  4.134286E-01
  4.113443E-01
  4.124189E-01
  4.092371E-01
  4.099621E-01
  4.080492E-01
  4.114670E-01
  4.122543E-01
  4.166319E-01
  4.158998E-01
  4.175823E-01
  4.152376E-01
  4.174800E-01
  4.165601E-01
  4.188323E-01
  4.163167E-01
  4.178391E-01
  4.171851E-01
  4.211363E-01
  4.196604E-01
  4.190048E-01
  4.130852E-01
  4.121847E-01
  4.100394E-01
  4.131929E-01
  4.124239E-01
  4.145136E-01
  4.126937E-01
  4.156349E-01
  4.157329E-01
  4.187969E-01
  4.154814E-01
  4.136368E-01
  4.080472E-01
  4.083448E-01
  4.072745E-01
  4.110562E-01
  4.110911E-01
  4.146088E-01
  4.141063E-01
  4.169515E-01
  4.156387E-01
  4.182579E-01
  4.177018E-01
  4.210912E-01
  4.199136E-01
  4.215971E-01
  4.193664E-01
  4.214316E-01
  4.197362E-01
  4.140029E-01
  4.125841E-01
  4.157551E-01
  4.128566E-01
  4.151901E-01
  4.123216E-01
  4.145290E-01
  4.106954E-01
  4.117950E-01
  4.081159E-01
  4.109293E-01
  4.094307E-01
  4.136588E-01
  4.125366E-01
  4.163793E-01
  4.137811E-01
  4.147617E-01
  4.089886E-01
  4.088825E-01
  4.058625E-01
  4.111230E-01
  4.125306E-01
  4.181671E-01
  4.158325E-01
  4.171074E-01
  4.134922E-01
  4.170150E-01
  4.161059E-01
  4.194390E-01
  4.154762E-01
  4.164129E-01
  4.134956E-01
  4.174695E-01
  4.158121E-01
  4.178744E-01
  4.134129E-01
  4.144278E-01
  4.107796E-01
  4.128607E-01
  4.099691E-01
  4.132214E-01
  4.122046E-01
  4.169854E-01
  4.157019E-01
  4.181999E-01
  4.138124E-01
  4.142098E-01
  4.097817E-01
  4.116827E-01