# vtk DataFile Version 2.0
title
ASCII
DATASET STRUCTURED_GRID
DIMENSIONS   64   64    1
POINTS   4096  float
  0.000000E+00  0.000000E+00  0.000000E+00
  0.000000E+00  3.906250E-01  0.000000E+00
  0.000000E+00  7.812500E-01  0.000000E+00
  0.000000E+00  1.171875E+00  0.000000E+00
  0.000000E+00  1.562500E+00  0.000000E+00
  0.000000E+00  1.953125E+00  0.000000E+00
  0.000000E+00  2.343750E+00  0.000000E+00
  0.000000E+00  2.734375E+00  0.000000E+00
  0.000000E+00  3.125000E+00  0.000000E+00
  0.000000E+00  3.515625E+00  0.000000E+00
  0.000000E+00  3.906250E+00  0.000000E+00
  0.000000E+00  4.296875E+00  0.000000E+00
  0.000000E+00  4.687500E+00  0.000000E+00
  0.000000E+00  5.078125E+00  0.000000E+00
  0.000000E+00  5.468750E+00  0.000000E+00
  0.000000E+00  5.859375E+00  0.000000E+00
  0.000000E+00  6.250000E+00  0.000000E+00
  0.000000E+00  6.640625E+00  0.000000E+00
  0.000000E+00  7.031250E+00  0.000000E+00
  0.000000E+00  7.421875E+00  0.000000E+00
  0.000000E+00  7.812500E+00  0.000000E+00
  0.000000E+00  8.203125E+00  0.000000E+00
  0.000000E+00  8.593750E+00  0.000000E+00
  0.000000E+00  8.984375E+00  0.000000E+00
  0.000000E+00  9.375000E+00  0.000000E+00
  0.000000E+00  9.765625E+00  0.000000E+00
  0.000000E+00  1.015625E+01  0.000000E+00
  0.000000E+00  1.054688E+01  0.000000E+00
  0.000000E+00  1.093750E+01  0.000000E+00
  0.000000E+00  1.132812E+01  0.000000E+00
  0.000000E+00  1.171875E+01  0.000000E+00
  0.000000E+00  1.210938E+01  0.000000E+00
  0.000000E+00  1.250000E+01  0.000000E+00
  0.000000E+00  1.289062E+01  0.000000E+00
  0.000000E+00  1.328125E+01  0.000000E+00
  0.000000E+00  1.367188E+01  0.000000E+00
  0.000000E+00  1.406250E+01  0.000000E+00
  0.000000E+00  1.445312E+01  0.000000E+00
  0.000000E+00  1.484375E+01  0.000000E+00
  0.000000E+00  1.523438E+01  0.000000E+00
  0.000000E+00  1.562500E+01  0.000000E+00
  0.000000E+00  1.601562E+01  0.000000E+00
  0.000000E+00  1.640625E+01  0.000000E+00
  0.000000E+00  1.679688E+01  0.000000E+00
  0.000000E+00  1.718750E+01  0.000000E+00
  0.000000E+00  1.757812E+01  0.000000E+00
  0.000000E+00  1.796875E+01  0.000000E+00
  0.000000E+00  1.835938E+01  0.000000E+00
  0.000000E+00  1.875000E+01  0.000000E+00
  0.000000E+00  1.914062E+01  0.000000E+00
  0.000000E+00  1.953125E+01  0.000000E+00
  0.000000E+00  1.992188E+01  0.000000E+00
  0.000000E+00  2.031250E+01  0.000000E+00
  0.000000E+00  2.070312E+01  0.000000E+00
  0.000000E+00  2.109375E+01  0.000000E+00
  0.000000E+00  2.148438E+01  0.000000E+00
  0.000000E+00  2.187500E+01  0.000000E+00
  0.000000E+00  2.226562E+01  0.000000E+00
  0.000000E+00  2.265625E+01  0.000000E+00
  0.000000E+00  2.304688E+01  0.000000E+00
  0.000000E+00  2.343750E+01  0.000000E+00
  0.000000E+00  2.382812E+01  0.000000E+00
  0.000000E+00  2.421875E+01  0.000000E+00
  0.000000E+00  2.460938E+01  0.000000E+00
  3.906250E-01  0.000000E+00  0.000000E+00
  3.906250E-01  3.906250E-01  0.000000E+00
  3.906250E-01  7.812500E-01  0.000000E+00
  3.906250E-01  1.171875E+00  0.000000E+00
  3.906250E-01  1.562500E+00  0.000000E+00
  3.906250E-01  1.953125E+00  0.000000E+00
  3.906250E-01  2.343750E+00  0.000000E+00
  3.906250E-01  2.734375E+00  0.000000E+00
  3.906250E-01  3.125000E+00  0.000000E+00
  3.906250E-01  3.515625E+00  0.000000E+00
  3.906250E-01  3.906250E+00  0.000000E+00
  3.906250E-01  4.296875E+00  0.000000E+00
  3.906250E-01  4.687500E+00  0.000000E+00
  3.906250E-01  5.078125E+00  0.000000E+00
  3.906250E-01  5.468750E+00  0.000000E+00
  3.906250E-01  5.859375E+00  0.000000E+00
  3.906250E-01  6.250000E+00  0.000000E+00
  3.906250E-01  6.640625E+00  0.000000E+00
  3.906250E-01  7.031250E+00  0.000000E+00
  3.906250E-01  7.421875E+00  0.000000E+00
  3.906250E-01  7.812500E+00  0.000000E+00
  3.906250E-01  8.203125E+00  0.000000E+00
  3.906250E-01  8.593750E+00  0.000000E+00
  3.906250E-01  8.984375E+00  0.000000E+00
  3.906250E-01  9.375000E+00  0.000000E+00
  3.906250E-01  9.765625E+00  0.000000E+00
  3.906250E-01  1.015625E+01  0.000000E+00
  3.906250E-01  1.054688E+01  0.000000E+00
  3.906250E-01  1.093750E+01  0.000000E+00
  3.906250E-01  1.132812E+01  0.000000E+00
  3.906250E-01  1.171875E+01  0.000000E+00
  3.906250E-01  1.210938E+01  0.000000E+00
  3.906250E-01  1.250000E+01  0.000000E+00
  3.906250E-01  1.289062E+01  0.000000E+00
  3.906250E-01  1.328125E+01  0.000000E+00
  3.906250E-01  1.367188E+01  0.000000E+00
  3.906250E-01  1.406250E+01  0.000000E+00
  3.906250E-01  1.445312E+01  0.000000E+00
  3.906250E-01  1.484375E+01  0.000000E+00
  3.906250E-01  1.523438E+01  0.000000E+00
  3.906250E-01  1.562500E+01  0.000000E+00
  3.906250E-01  1.601562E+01  0.000000E+00
  3.906250E-01  1.640625E+01  0.000000E+00
  3.906250E-01  1.679688E+01  0.000000E+00
  3.906250E-01  1.718750E+01  0.000000E+00
  3.906250E-01  1.757812E+01  0.000000E+00
  3.906250E-01  1.796875E+01  0.000000E+00
  3.906250E-01  1.835938E+01  0.000000E+00
  3.906250E-01  1.875000E+01  0.000000E+00
  3.906250E-01  1.914062E+01  0.000000E+00
  3.906250E-01  1.953125E+01  0.000000E+00
  3.906250E-01  1.992188E+01  0.000000E+00
  3.906250E-01  2.031250E+01  0.000000E+00
  3.906250E-01  2.070312E+01  0.000000E+00
  3.906250E-01  2.109375E+01  0.000000E+00
  3.906250E-01  2.148438E+01  0.000000E+00
  3.906250E-01  2.187500E+01  0.000000E+00
  3.906250E-01  2.226562E+01  0.000000E+00
  3.906250E-01  2.265625E+01  0.000000E+00
  3.906250E-01  2.304688E+01  0.000000E+00
  3.906250E-01  2.343750E+01  0.000000E+00
  3.906250E-01  2.382812E+01  0.000000E+00
  3.906250E-01  2.421875E+01  0.000000E+00
  3.906250E-01  2.460938E+01  0.000000E+00
  7.812500E-01  0.000000E+00  0.000000E+00
  7.812500E-01  3.906250E-01  0.000000E+00
  7.812500E-01  7.812500E-01  0.000000E+00
  7.812500E-01  1.171875E+00  0.000000E+00
  7.812500E-01  1.562500E+00  0.000000E+00
  7.812500E-01  1.953125E+00  0.000000E+00
  7.812500E-01  2.343750E+00  0.000000E+00
  7.812500E-01  2.734375E+00  0.000000E+00
  7.812500E-01  3.125000E+00  0.000000E+00
  7.812500E-01  3.515625E+00  0.000000E+00
  7.812500E-01  3.906250E+00  0.000000E+00
  7.812500E-01  4.296875E+00  0.000000E+00
  7.812500E-01  4.687500E+00  0.000000E+00
  7.812500E-01  5.078125E+00  0.000000E+00
  7.812500E-01  5.468750E+00  0.000000E+00
  7.812500E-01  5.859375E+00  0.000000E+00
  7.812500E-01  6.250000E+00  0.000000E+00
  7.812500E-01  6.640625E+00  0.000000E+00
  7.812500E-01  7.031250E+00  0.000000E+00
  7.812500E-01  7.421875E+00  0.000000E+00
  7.812500E-01  7.812500E+00  0.000000E+00
  7.812500E-01  8.203125E+00  0.000000E+00
  7.812500E-01  8.593750E+00  0.000000E+00
  7.812500E-01  8.984375E+00  0.000000E+00
  7.812500E-01  9.375000E+00  0.000000E+00
  7.812500E-01  9.765625E+00  0.000000E+00
  7.812500E-01  1.015625E+01  0.000000E+00
  7.812500E-01  1.054688E+01  0.000000E+00
  7.812500E-01  1.093750E+01  0.000000E+00
  7.812500E-01  1.132812E+01  0.000000E+00
  7.812500E-01  1.171875E+01  0.000000E+00
  7.812500E-01  1.210938E+01  0.000000E+00
  7.812500E-01  1.250000E+01  0.000000E+00
  7.812500E-01  1.289062E+01  0.000000E+00
  7.812500E-01  1.328125E+01  0.000000E+00
  7.812500E-01  1.367188E+01  0.000000E+00
  7.812500E-01  1.406250E+01  0.000000E+00
  7.812500E-01  1.445312E+01  0.000000E+00
  7.812500E-01  1.484375E+01  0.000000E+00
  7.812500E-01  1.523438E+01  0.000000E+00
  7.812500E-01  1.562500E+01  0.000000E+00
  7.812500E-01  1.601562E+01  0.000000E+00
  7.812500E-01  1.640625E+01  0.000000E+00
  7.812500E-01  1.679688E+01  0.000000E+00
  7.812500E-01  1.718750E+01  0.000000E+00
  7.812500E-01  1.757812E+01  0.000000E+00
  7.812500E-01  1.796875E+01  0.000000E+00
  7.812500E-01  1.835938E+01  0.000000E+00
  7.812500E-01  1.875000E+01  0.000000E+00
  7.812500E-01  1.914062E+01  0.000000E+00
  7.812500E-01  1.953125E+01  0.000000E+00
  7.812500E-01  1.992188E+01  0.000000E+00
  7.812500E-01  2.031250E+01  0.000000E+00
  7.812500E-01  2.070312E+01  0.000000E+00
  7.812500E-01  2.109375E+01  0.000000E+00
  7.812500E-01  2.148438E+01  0.000000E+00
  7.812500E-01  2.187500E+01  0.000000E+00
  7.812500E-01  2.226562E+01  0.000000E+00
  7.812500E-01  2.265625E+01  0.000000E+00
  7.812500E-01  2.304688E+01  0.000000E+00
  7.812500E-01  2.343750E+01  0.000000E+00
  7.812500E-01  2.382812E+01  0.000000E+00
  7.812500E-01  2.421875E+01  0.000000E+00
  7.812500E-01  2.460938E+01  0.000000E+00
  1.171875E+00  0.000000E+00  0.000000E+00
  1.171875E+00  3.906250E-01  0.000000E+00
  1.171875E+00  7.812500E-01  0.000000E+00
  1.171875E+00  1.171875E+00  0.000000E+00
  1.171875E+00  1.562500E+00  0.000000E+00
  1.171875E+00  1.953125E+00  0.000000E+00
  1.171875E+00  2.343750E+00  0.000000E+00
  1.171875E+00  2.734375E+00  0.000000E+00
  1.171875E+00  3.125000E+00  0.000000E+00
  1.171875E+00  3.515625E+00  0.000000E+00
  1.171875E+00  3.906250E+00  0.000000E+00
  1.171875E+00  4.296875E+00  0.000000E+00
  1.171875E+00  4.687500E+00  0.000000E+00
  1.171875E+00  5.078125E+00  0.000000E+00
  1.171875E+00  5.468750E+00  0.000000E+00
  1.171875E+00  5.859375E+00  0.000000E+00
  1.171875E+00  6.250000E+00  0.000000E+00
  1.171875E+00  6.640625E+00  0.000000E+00
  1.171875E+00  7.031250E+00  0.000000E+00
  1.171875E+00  7.421875E+00  0.000000E+00
  1.171875E+00  7.812500E+00  0.000000E+00
  1.171875E+00  8.203125E+00  0.000000E+00
  1.171875E+00  8.593750E+00  0.000000E+00
  1.171875E+00  8.984375E+00  0.000000E+00
  1.171875E+00  9.375000E+00  0.000000E+00
  1.171875E+00  9.765625E+00  0.000000E+00
  1.171875E+00  1.015625E+01  0.000000E+00
  1.171875E+00  1.054688E+01  0.000000E+00
  1.171875E+00  1.093750E+01  0.000000E+00
  1.171875E+00  1.132812E+01  0.000000E+00
  1.171875E+00  1.171875E+01  0.000000E+00
  1.171875E+00  1.210938E+01  0.000000E+00
  1.171875E+00  1.250000E+01  0.000000E+00
  1.171875E+00  1.289062E+01  0.000000E+00
  1.171875E+00  1.328125E+01  0.000000E+00
  1.171875E+00  1.367188E+01  0.000000E+00
  1.171875E+00  1.406250E+01  0.000000E+00
  1.171875E+00  1.445312E+01  0.000000E+00
[...]
POINT_DATA   4096
SCALARS CON  float  1
LOOKUP_TABLE default
  4.558681E-01
  4.535256E-01
  4.586132E-01
  4.590259E-01
  4.599771E-01
  4.521514E-01
  4.508772E-01
  4.507537E-01
  4.583254E-01
  4.578770E-01
  4.573321E-01
  4.514357E-01
  4.532532E-01
  4.521340E-01
  4.546310E-01
  4.509751E-01
  4.534406E-01
  4.540375E-01
  4.593512E-01
  4.564426E-01
  4.557830E-01
  4.507203E-01
  4.514907E-01
  4.481730E-01
  4.503412E-01
  4.480067E-01
  4.497242E-01
  4.474639E-01
  4.533393E-01
  4.566528E-01
  4.612061E-01
  4.542777E-01
  4.503416E-01
  4.475012E-01
  4.553194E-01
  4.568598E-01
  4.574394E-01
  4.511492E-01
  4.510946E-01
  4.474200E-01
  4.497926E-01
  4.490930E-01
  4.518731E-01
  4.476532E-01
  4.499211E-01
  4.497592E-01
  4.519271E-01
  4.481199E-01
  4.544488E-01
  4.590509E-01
  4.613793E-01
  4.518692E-01
  4.497315E-01
  4.483760E-01
  4.532009E-01
  4.544351E-01
  4.627978E-01
  4.646164E-01
  4.653449E-01
  4.585238E-01
  4.590837E-01
  4.574031E-01
  4.596514E-01
  4.553976E-01
  4.553942E-01
  4.539008E-01
  4.615799E-01
  4.659640E-01
  4.665244E-01
  4.557563E-01
  4.498792E-01
  4.484955E-01
  4.558449E-01
  4.562038E-01
  4.548398E-01
  4.505625E-01
  4.545938E-01
  4.555820E-01
  4.561077E-01
  4.505444E-01
  4.515689E-01
  4.538201E-01
  4.611878E-01
  4.612796E-01
  4.596738E-01
  4.514630E-01
  4.483553E-01
  4.459041E-01
  4.505486E-01
  4.513773E-01
  4.533524E-01
  4.506617E-01
  4.538246E-01
  4.556781E-01
  4.593746E-01
  4.544813E-01
  4.518451E-01
  4.494889E-01
  4.539712E-01
  4.532279E-01
  4.535842E-01
  4.502411E-01
  4.515751E-01
  4.496289E-01
  4.512881E-01
  4.483656E-01
  4.475264E-01
  4.432417E-01
  4.454719E-01
  4.462090E-01
  4.496566E-01
  4.497714E-01
  4.583650E-01
  4.647582E-01
  4.661795E-01
  4.549977E-01
  4.498205E-01
  4.489788E-01
  4.557127E-01
  4.588330E-01
  4.647715E-01
  4.641114E-01
  4.625135E-01
  4.551178E-01
  4.542432E-01
  4.540823E-01
  4.584741E-01
  4.561576E-01
  4.486404E-01
  4.527761E-01
  4.628152E-01
  4.673289E-01
  4.648457E-01
  4.548961E-01
  4.510659E-01
  4.514663E-01
  4.557110E-01
  4.551715E-01
  4.550827E-01
  4.537671E-01
  4.562296E-01
  4.562398E-01
  4.566367E-01
  4.536744E-01
  4.544571E-01
  4.557185E-01
  4.596203E-01
  4.589738E-01
  4.580003E-01
  4.533896E-01
  4.510164E-01
  4.483605E-01
  4.505895E-01
  4.509889E-01
  4.514135E-01
  4.487424E-01
  4.504713E-01
  4.515280E-01
  4.527101E-01
  4.487840E-01
  4.479488E-01
  4.491590E-01
  4.550680E-01
  4.563411E-01
  4.558775E-01
  4.521388E-01
  4.517418E-01
  4.498882E-01
  4.506024E-01
  4.487884E-01
  4.472128E-01
  4.420198E-01
  4.415955E-01
  4.436988E-01
  4.501328E-01
  4.544694E-01
  4.622626E-01
  4.664028E-01
  4.648668E-01
  4.547224E-01
  4.501475E-01
  4.504957E-01
  4.556602E-01
  4.582277E-01
  4.634121E-01
  4.649782E-01
  4.631116E-01
  4.538703E-01
  4.481733E-01
  4.455027E-01
  4.475445E-01
  4.466072E-01
  4.476553E-01
  4.533229E-01
  4.622826E-01
  4.673431E-01
  4.614620E-01
  4.517446E-01
  4.464745E-01
  4.486617E-01
  4.521485E-01
  4.543910E-01
  4.546542E-01
  4.566207E-01
  4.589106E-01
  4.597593E-01
  4.565024E-01
  4.534906E-01
  4.530466E-01
  4.560389E-01
  4.578763E-01
  4.579791E-01
  4.559973E-01
  4.548374E-01
  4.541126E-01
  4.553846E-01
  4.564111E-01
  4.565003E-01
  4.536789E-01
  4.507321E-01
  4.483599E-01
  4.489758E-01
  4.508046E-01
  4.531143E-01
  4.534460E-01
  4.537188E-01
  4.530806E-01
  4.525555E-01
  4.510935E-01
  4.506997E-01
  4.513627E-01
  4.548181E-01
  4.563266E-01
  4.533598E-01
  4.476310E-01
  4.462517E-01
  4.481099E-01
  4.509702E-01
  4.520419E-01
  4.537241E-01
  4.565312E-01
  4.603543E-01
  4.587688E-01
  4.526567E-01
  4.483505E-01
  4.521701E-01
  4.588283E-01
  4.638020E-01
  4.651010E-01
  4.648495E-01
  4.602051E-01
  4.530109E-01
  4.471536E-01
  4.469480E-01
  4.478619E-01
  4.477549E-01
  4.449272E-01
  4.553544E-01
  4.601115E-01
  4.640814E-01
  4.548134E-01
  4.499781E-01
  4.453215E-01
  4.498976E-01
  4.489214E-01
  4.534327E-01
  4.538038E-01
  4.591620E-01
  4.567889E-01
  4.580933E-01
  4.537960E-01
  4.557808E-01
  4.537449E-01
  4.577715E-01
  4.550414E-01
  4.561780E-01
  4.529256E-01
  4.572530E-01
  4.557197E-01
  4.571562E-01
  4.523457E-01
  4.539496E-01
  4.504711E-01
  4.514290E-01
  4.462846E-01
  4.478523E-01
  4.472761E-01
  4.536119E-01
  4.520409E-01
  4.534539E-01
  4.508558E-01
  4.552999E-01
  4.522626E-01
  4.520937E-01
  4.482859E-01
  4.535511E-01
  4.527906E-01
  4.529758E-01
  4.466094E-01
  4.498653E-01
  4.516470E-01
  4.580684E-01
  4.549103E-01
  4.539308E-01
  4.488648E-01
  4.530030E-01
  4.516826E-01
  4.522295E-01
  4.475009E-01
  4.523112E-01
  4.534210E-01
  4.583281E-01
  4.574531E-01
  4.621183E-01
  4.579390E-01
  4.551231E-01
  4.471095E-01
  4.467144E-01
  4.417697E-01
  4.438710E-01
  4.508524E-01
  4.582682E-01
  4.579673E-01
  4.615533E-01
  4.529168E-01
  4.499673E-01
  4.425823E-01
  4.456471E-01
  4.435851E-01
  4.502341E-01
  4.501496E-01
  4.566620E-01
  4.545987E-01
  4.576724E-01
  4.514967E-01
  4.529390E-01
  4.498636E-01
  4.565369E-01
  4.558086E-01
  4.598898E-01
  4.549836E-01
  4.577477E-01
  4.530586E-01
  4.538292E-01
  4.471115E-01
  4.505319E-01
  4.496057E-01
  4.547194E-01
  4.485995E-01
  4.498758E-01
  4.501837E-01
  4.610273E-01
  4.584339E-01
  4.556426E-01
  4.465261E-01
  4.505195E-01
  4.491912E-01
  4.527504E-01
  4.494440E-01
  4.566812E-01
  4.545324E-01
  4.525799E-01
  4.436669E-01
  4.515087E-01
  4.579869E-01
  4.669142E-01
  4.593540E-01
  4.540794E-01
  4.444986E-01
  4.496163E-01
  4.502158E-01
  4.536232E-01
  4.471890E-01
  4.513118E-01
  4.506991E-01
  4.555411E-01
  4.514666E-01
  4.549500E-01
  4.512115E-01
  4.547888E-01
  4.517304E-01
  4.550975E-01
  4.496780E-01
  4.524607E-01
  4.523046E-01
  4.565189E-01
  4.549037E-01
  4.554710E-01
  4.506935E-01
  4.503766E-01
  4.476319E-01
  4.485380E-01
  4.451797E-01
  4.483335E-01
  4.503122E-01
  4.551550E-01
  4.525517E-01
  4.522774E-01
  4.492496E-01
  4.519745E-01
  4.520072E-01
  4.570723E-01
  4.578987E-01
  4.601965E-01
  4.566836E-01
  4.575847E-01
  4.532589E-01
  4.488572E-01
  4.399669E-01
  4.409217E-01
  4.444633E-01
  4.522526E-01
  4.508705E-01
  4.506925E-01
  4.510453E-01
  4.592173E-01
  4.579367E-01
  4.533461E-01
  4.474289E-01
  4.531318E-01
  4.558024E-01
  4.573974E-01
  4.532252E-01
  4.552214E-01
  4.526154E-01
  4.502737E-01
  4.446810E-01
  4.497614E-01
  4.564379E-01
  4.654648E-01
  4.630452E-01
  4.577270E-01
  4.486463E-01
  4.499244E-01
  4.510107E-01
  4.534341E-01
  4.494342E-01
  4.503763E-01
  4.477535E-01
  4.482277E-01
  4.459501E-01
  4.498327E-01
  4.506860E-01
  4.559883E-01
  4.565818E-01
  4.574017E-01
  4.515749E-01
  4.521328E-01
  4.538953E-01
  4.520170E-01
  4.517610E-01
  4.538407E-01
  4.541558E-01
  4.539456E-01
  4.527774E-01
  4.516090E-01
  4.495914E-01
  4.501337E-01
  4.520314E-01
  4.545412E-01
  4.542103E-01
  4.525224E-01
  4.505657E-01
  4.519793E-01
  4.551107E-01
  4.600652E-01
  4.635629E-01
  4.639626E-01
  4.596774E-01
  4.563549E-01
  4.540669E-01
  4.508773E-01
  4.451574E-01
  4.434980E-01
  4.474480E-01
  4.538678E-01
  4.547972E-01
  4.531487E-01
  4.553803E-01
  4.629246E-01
  4.643809E-01
  4.575211E-01
  4.502812E-01
  4.518997E-01
  4.568735E-01
  4.589081E-01
  4.571499E-01
  4.577958E-01
  4.575805E-01
  4.535587E-01
  4.482773E-01
  4.501214E-01
  4.564805E-01
  4.620931E-01
  4.617341E-01
  4.574852E-01
  4.523119E-01
  4.520760E-01
  4.536117E-01
  4.533600E-01
  4.506208E-01
  4.508644E-01
  4.523298E-01
  4.531380E-01
  4.509701E-01
  4.489692E-01
  4.487311E-01
  4.532356E-01
  4.579684E-01
  4.599693E-01
  4.582472E-01
  4.566563E-01
  4.468378E-01
  4.475001E-01
  4.495069E-01
  4.543245E-01
  4.554969E-01
  4.577437E-01
  4.589067E-01
  4.597263E-01
  4.558862E-01
  4.549820E-01
  4.557487E-01
  4.579659E-01
  4.548333E-01
  4.525622E-01
  4.524214E-01
  4.574460E-01
  4.602884E-01
  4.632703E-01
  4.634410E-01
  4.625623E-01
  4.571479E-01
  4.550007E-01
  4.540974E-01
  4.537462E-01
  4.490814E-01
  4.477263E-01
  4.491196E-01
  4.542179E-01
  4.548663E-01
  4.539860E-01
  4.533058E-01
  4.584534E-01
  4.601626E-01
  4.583430E-01
  4.552746E-01
  4.590607E-01
  4.615990E-01
  4.606760E-01
  4.550610E-01
  4.535096E-01
  4.530502E-01
  4.541323E-01
  4.520159E-01
  4.514389E-01
  4.506460E-01
  4.534007E-01
  4.545324E-01
  4.553706E-01
  4.533561E-01
  4.546282E-01
  4.550916E-01
  4.552686E-01
  4.521281E-01
  4.520996E-01
  4.526449E-01
  4.555857E-01
  4.551803E-01
  4.539241E-01
  4.505574E-01
  4.512195E-01
  4.512043E-01
  4.513756E-01
  4.490489E-01
  4.488869E-01
  4.468529E-01
  4.467718E-01
  4.499609E-01
  4.570610E-01
  4.575130E-01
  4.572744E-01
  4.555991E-01
  4.573104E-01
  4.560478E-01
  4.570125E-01
  4.563580E-01
  4.581835E-01
  4.563746E-01
  4.559248E-01
  4.539036E-01
  4.554854E-01
  4.547068E-01
  4.570567E-01
  4.586657E-01
  4.606835E-01
  4.552855E-01
  4.516136E-01
  4.501730E-01
  4.539672E-01
  4.542080E-01
  4.557285E-01
  4.556605E-01
  4.580418E-01
  4.557474E-01
  4.542248E-01
  4.529098E-01
  4.578263E-01
  4.595456E-01
  4.591002E-01
  4.548598E-01
  4.563402E-01
  4.572390E-01
  4.574420E-01
  4.526858E-01
  4.521700E-01
  4.516315E-01
  4.533730E-01
  4.525927E-01
  4.544299E-01
  4.523598E-01
  4.507408E-01
  4.472538E-01
  4.484954E-01
  4.500280E-01
  4.558099E-01
  4.579460E-01
  4.579230E-01
  4.527729E-01
  4.529077E-01
  4.560571E-01
  4.629841E-01
  4.625375E-01
  4.580824E-01
  4.501902E-01
  4.486865E-01
  4.481607E-01
  4.507174E-01
  4.506723E-01
  4.511865E-01
  4.456660E-01
  4.467056E-01
  4.502135E-01
  4.541762E-01
  4.541275E-01
  4.537233E-01
  4.549247E-01
  4.569624E-01
  4.561987E-01
  4.557221E-01
  4.562708E-01
  4.572660E-01
  4.553730E-01
  4.533271E-01
  4.523073E-01
  4.524745E-01
  4.509164E-01
  4.510490E-01
  4.536624E-01
  4.564221E-01
  4.543370E-01
  4.511493E-01
  4.494787E-01
  4.501357E-01
  4.508576E-01
  4.535643E-01
  4.563874E-01
  4.582105E-01
  4.564296E-01
  4.529205E-01
  4.492276E-01
  4.490939E-01
  4.502667E-01
  4.516956E-01
  4.530245E-01
  4.565658E-01
  4.582645E-01
  4.564859E-01
  4.514260E-01
  4.471781E-01
  4.447749E-01
  4.474161E-01
  4.524541E-01
  4.557136E-01
  4.533309E-01
  4.494647E-01
  4.466776E-01
  4.478207E-01
  4.516075E-01
  4.569844E-01
  4.590310E-01
  4.574710E-01
  4.535133E-01
  4.521350E-01
  4.540605E-01
  4.590282E-01
  4.614545E-01
  4.595541E-01
  4.543813E-01
  4.517063E-01
  4.510604E-01
  4.509810E-01
  4.490804E-01
  4.474123E-01
  4.495636E-01
  4.483034E-01
  4.497797E-01
  4.526883E-01
  4.537275E-01
  4.536515E-01
  4.536488E-01
  4.537148E-01
  4.529547E-01
  4.527491E-01
  4.533546E-01
  4.548030E-01
  4.552747E-01
  4.539193E-01
  4.511717E-01
  4.494984E-01
  4.495321E-01
  4.524745E-01
  4.575030E-01
  4.609471E-01
  4.586794E-01
  4.536300E-01
  4.500782E-01
  4.493502E-01
  4.503132E-01
  4.539827E-01
  4.589789E-01
  4.618420E-01
  4.596769E-01
  4.550327E-01
  4.515367E-01
  4.512770E-01
  4.518900E-01
  4.512713E-01
  4.497408E-01
  4.504894E-01
  4.528664E-01
  4.542297E-01
  4.529327E-01
  4.502685E-01
  4.469949E-01
  4.463935E-01
  4.503619E-01
  4.561422E-01
  4.578070E-01
  4.551643E-01
  4.517480E-01
  4.517095E-01
  4.551216E-01
  4.589525E-01
  4.585366E-01
  4.544414E-01
  4.504324E-01
  4.502327E-01
  4.534145E-01
  4.578346E-01
  4.595228E-01
  4.574701E-01
  4.542371E-01
  4.544157E-01
  4.571912E-01
  4.586887E-01
  4.564962E-01
  4.529206E-01
  4.477944E-01
  4.507199E-01
  4.500693E-01
  4.522454E-01
  4.525351E-01
  4.560494E-01
  4.560595E-01
  4.555373E-01
  4.506503E-01
  4.510471E-01
  4.522982E-01
  4.558333E-01
  4.533935E-01
  4.516786E-01
  4.492145E-01
  4.526221E-01
  4.548080E-01
  4.592971E-01
  4.603210E-01
  4.621216E-01
  4.587223E-01
  4.566655E-01
  4.517325E-01
  4.491498E-01
  4.455362E-01
  4.490049E-01
  4.533242E-01
  4.590671E-01
  4.578944E-01
  4.558509E-01
  4.509097E-01
  4.511265E-01
  4.506017E-01
  4.522765E-01
  4.512850E-01
  4.541380E-01
  4.541500E-01
  4.550343E-01
  4.520360E-01
  4.505660E-01
  4.462385E-01
  4.474800E-01
  4.494048E-01
  4.531989E-01
  4.523457E-01
  4.545533E-01
  4.549312E-01
  4.576884E-01
  4.576270E-01
  4.586242E-01
  4.537293E-01
  4.506256E-01
  4.474714E-01
  4.488338E-01
  4.477354E-01
  4.503856E-01
  4.523275E-01
  4.567067E-01
  4.566413E-01
  4.585934E-01
  4.574683E-01
  4.560260E-01
  4.495245E-01
  4.480303E-01
  4.513394E-01
  4.537767E-01
  4.520424E-01
  4.550399E-01
  4.550609E-01
  4.571160E-01
  4.531929E-01
  4.513162E-01
  4.473471E-01
  4.499007E-01
  4.505280E-01
  4.542196E-01
  4.526998E-01
  4.524990E-01
  4.487257E-01
  4.514871E-01
  4.532366E-01
  4.580480E-01
  4.580274E-01
  4.604731E-01
  4.575742E-01
  4.564698E-01
  4.517090E-01
  4.512051E-01
  4.480118E-01
  4.498863E-01
  4.504086E-01
  4.550669E-01
  4.544881E-01
  4.555194E-01
  4.535822E-01
  4.573453E-01
  4.574424E-01
  4.574718E-01
  4.516135E-01
  4.512164E-01
  4.500248E-01
  4.525486E-01
  4.514842E-01
  4.547037E-01
  4.536253E-01
  4.541427E-01
  4.507588E-01
  4.516850E-01
  4.503068E-01
  4.538457E-01
  4.537240E-01
  4.554981E-01
  4.531051E-01
  4.537324E-01
  4.492339E-01
  4.483107E-01
  4.467348E-01
  4.506445E-01
  4.505758E-01
  4.532938E-01
  4.526729E-01
  4.557256E-01
  4.551906E-01
  4.579118E-01
  4.557552E-01
  4.548336E-01
  4.500453E-01
  4.514524E-01
  4.514142E-01
  4.537735E-01
  4.523254E-01
  4.525591E-01
  4.531104E-01
  4.551217E-01
  4.548158E-01
  4.537847E-01
  4.508205E-01
  4.504172E-01
  4.506116E-01
  4.519651E-01
  4.505089E-01
  4.495114E-01
  4.493639E-01
  4.528342E-01
  4.542756E-01
  4.538007E-01
  4.515817E-01
  4.533409E-01
  4.557647E-01
  4.575349E-01
  4.549910E-01
  4.523581E-01
  4.489501E-01
  4.470335E-01
  4.448586E-01
  4.468255E-01
  4.500316E-01
  4.527034E-01
  4.514869E-01
  4.523382E-01
  4.534140E-01
  4.539480E-01
  4.522323E-01
  4.533962E-01
  4.534675E-01
  4.523851E-01
  4.501492E-01
  4.518753E-01
  4.540264E-01
  4.563733E-01
  4.545857E-01
  4.510509E-01
  4.476921E-01
  4.502090E-01
  4.525831E-01
  4.526867E-01
  4.496842E-01
  4.483244E-01
  4.462786E-01
  4.473194E-01
  4.503431E-01
  4.546445E-01
  4.544942E-01
  4.534807E-01
  4.524102E-01
  4.543042E-01
  4.550111E-01
  4.548649E-01
  4.509574E-01
  4.472291E-01
  4.446325E-01
  4.476518E-01
  4.588275E-01
  4.548053E-01
  4.524549E-01
  4.505037E-01
  4.529469E-01
  4.528735E-01
  4.541716E-01
  4.531795E-01
  4.541777E-01
  4.512927E-01
  4.500316E-01
  4.484590E-01
  4.509381E-01
  4.507944E-01
  4.530203E-01
  4.542234E-01
  4.564280E-01
  4.529501E-01
  4.521529E-01
  4.537547E-01
  4.595236E-01
  4.589971E-01
  4.566922E-01
  4.528327E-01
  4.530285E-01
  4.493565E-01
  4.467660E-01
  4.456704E-01
  4.507849E-01
  4.517842E-01
  4.517143E-01
  4.507344E-01
  4.542637E-01
  4.532728E-01
  4.519197E-01
  4.500349E-01
  4.522782E-01
  4.505419E-01
  4.507756E-01
  4.522034E-01
  4.570465E-01
  4.560792E-01
  4.545558E-01
  4.515022E-01
  4.530644E-01
  4.534001E-01
  4.538224E-01
  4.490394E-01
  4.473729E-01
  4.463792E-01
  4.484543E-01
  4.484701E-01
  4.530581E-01
  4.572042E-01
  4.616451E-01
  4.591238E-01
  4.554559E-01
  4.497344E-01
  4.486994E-01
  4.467526E-01
  4.473118E-01
  4.473961E-01
  4.527542E-01
  4.563847E-01
  4.624443E-01
  4.577320E-01
  4.538474E-01
  4.491624E-01
  4.508374E-01
  4.511835E-01
  4.547133E-01
  4.547704E-01
  4.561197E-01
  4.525204E-01
  4.520604E-01
  4.497826E-01
  4.502392E-01
  4.483427E-01
  4.534807E-01
  4.586435E-01
  4.632411E-01
  4.580906E-01
  4.546172E-01
  4.534316E-01
  4.592381E-01
  4.589019E-01
  4.557414E-01
  4.488684E-01
  4.483888E-01
  4.458540E-01
  4.456066E-01
  4.456279E-01
  4.518463E-01
  4.509172E-01
  4.473339E-01
  4.433988E-01
  4.488450E-01
  4.525226E-01
  4.568901E-01
  4.569323E-01
  4.577423E-01
  4.522583E-01
  4.500084E-01
  4.482495E-01
  4.511871E-01
  4.503380E-01
  4.517548E-01
  4.506119E-01
  4.539714E-01
  4.546926E-01
  4.549653E-01
  4.487545E-01
  4.475042E-01
  4.476654E-01
  4.516625E-01
  4.514732E-01
  4.550479E-01
  4.566659E-01
  4.590174E-01
  4.542890E-01
  4.510947E-01
  4.467747E-01
  4.471375E-01
  4.441898E-01
  4.445433E-01
  4.454115E-01
  4.533564E-01
  4.585960E-01
  4.670133E-01
  4.609342E-01
  4.554195E-01
  4.524621E-01
  4.526128E-01
  4.510409E-01
  4.491360E-01
  4.486805E-01
  4.515665E-01
  4.527393E-01
  4.525233E-01
  4.510401E-01
  4.499870E-01
  4.481406E-01
  4.499725E-01
  4.548109E-01
  4.594913E-01
  4.583744E-01
  4.555485E-01
  4.542838E-01
  4.560086E-01
  4.549879E-01
  4.514350E-01
  4.478005E-01
  4.482840E-01
  4.486862E-01
  4.490429E-01
  4.507280E-01
  4.544906E-01
  4.532424E-01
  4.491622E-01
  4.483627E-01
  4.544530E-01
  4.593746E-01
  4.598715E-01
  4.565702E-01
  4.539736E-01
  4.509690E-01
  4.503141E-01
  4.513157E-01
  4.523408E-01
  4.497517E-01
  4.491365E-01
  4.527808E-01
  4.590066E-01
  4.598028E-01
  4.546054E-01
  4.468415E-01
  4.451015E-01
  4.490165E-01
  4.542637E-01
  4.547052E-01
  4.542644E-01
  4.551757E-01
  4.570034E-01
  4.541916E-01
  4.496731E-01
  4.465487E-01
  4.470230E-01
  4.468407E-01
  4.477674E-01
  4.518711E-01
  4.606983E-01
  4.668878E-01
  4.608860E-01
  4.589182E-01
  4.546335E-01
  4.523982E-01
  4.516775E-01
  4.512666E-01
  4.492527E-01
  4.487759E-01
  4.497502E-01
  4.519316E-01
  4.528212E-01
  4.521349E-01
  4.480670E-01
  4.447260E-01
  4.452521E-01
  4.500785E-01
  4.535014E-01
  4.538639E-01
  4.510114E-01
  4.489889E-01
  4.492323E-01
  4.518968E-01
  4.523024E-01
  4.509114E-01
  4.492486E-01
  4.489572E-01
  4.485083E-01
  4.509120E-01
  4.542771E-01
  4.544876E-01
  4.503995E-01
  4.499384E-01
  4.544989E-01
  4.599718E-01
  4.606168E-01
  4.579105E-01
  4.534602E-01
  4.508873E-01
  4.500893E-01
  4.508026E-01
  4.501278E-01
  4.497031E-01
  4.505279E-01
  4.542749E-01
  4.576190E-01
  4.580109E-01
  4.530410E-01
  4.473562E-01
  4.450079E-01
  4.481775E-01
  4.518956E-01
  4.535431E-01
  4.529343E-01
  4.534187E-01
  4.524128E-01
  4.495501E-01
  4.474252E-01
  4.505088E-01
  4.544671E-01
  4.553737E-01
  4.527233E-01
  4.522136E-01
  4.549120E-01
  4.594596E-01
  4.581200E-01
  4.548480E-01
  4.542114E-01
  4.522246E-01
  4.536835E-01
  4.512703E-01
  4.499361E-01
  4.466658E-01
  4.481651E-01
  4.477373E-01
  4.496425E-01
  4.488652E-01
  4.503810E-01
  4.482927E-01
  4.484501E-01
  4.462333E-01
  4.474401E-01
  4.469407E-01
  4.488096E-01
  4.465465E-01
  4.476200E-01
  4.494708E-01
  4.556787E-01
  4.570854E-01
  4.579653E-01
  4.541806E-01
  4.535649E-01
  4.530592E-01
  4.565288E-01
  4.551785E-01
  4.553033E-01
  4.553830E-01
  4.603225E-01
  4.598074E-01
  4.566279E-01
  4.490703E-01
  4.478018E-01
  4.481128E-01
  4.523232E-01
  4.531389E-01
  4.548420E-01
  4.518096E-01
  4.523652E-01
  4.537909E-01
  4.580319E-01
  4.548459E-01
  4.508504E-01
  4.453852E-01
  4.456874E-01
  4.457718E-01
  4.492802E-01
  4.489785E-01
  4.508803E-01
  4.518961E-01
  4.557726E-01
  4.540972E-01
  4.542694E-01
  4.547400E-01
  4.597565E-01
  4.600394E-01
  4.598844E-01
  4.563849E-01
  4.574367E-01
  4.570348E-01
  4.522627E-01
  4.508521E-01
  4.543781E-01
  4.501495E-01
  4.526531E-01
  4.503017E-01
  4.548937E-01
  4.505845E-01
  4.499586E-01
  4.437952E-01
  4.480068E-01
  4.479799E-01
  4.534866E-01
  4.518337E-01
  4.565908E-01
  4.525354E-01
  4.522181E-01
  4.459687E-01
  4.477527E-01
  4.432973E-01
  4.474033E-01
  4.496755E-01
  4.592233E-01
  4.573937E-01
  4.576231E-01
  4.512156E-01
  4.539760E-01
  4.531839E-01
  4.587353E-01
  4.539226E-01
  4.534734E-01
  4.496595E-01
  4.557085E-01
  4.539118E-01
  4.550028E-01
  4.488762E-01
  4.516687E-01
  4.496796E-01
  4.528888E-01
  4.483286E-01
  4.515203E-01
  4.500397E-01
  4.548840E-01
  4.519437E-01
  4.540017E-01
  4.485053E-01
  4.503265E-01
  4.475473E-01
  4.509781E-01