# vtk DataFile Version 2.0
title
ASCII
DATASET STRUCTURED_GRID
DIMENSIONS   64   64    1
POINTS   4096  float
  0.000000E+00  0.000000E+00  0.000000E+00
  0.000000E+00  3.906250E-01  0.000000E+00
  0.000000E+00  7.812500E-01  0.000000E+00
  0.000000E+00  1.171875E+00  0.000000E+00
  0.000000E+00  1.562500E+00  0.000000E+00
  0.000000E+00  1.953125E+00  0.000000E+00
  0.000000E+00  2.343750E+00  0.000000E+00
  0.000000E+00  2.734375E+00  0.000000E+00
  0.000000E+00  3.125000E+00  0.000000E+00
  0.000000E+00  3.515625E+00  0.000000E+00
  0.000000E+00  3.906250E+00  0.000000E+00
  0.000000E+00  4.296875E+00  0.000000E+00
  0.000000E+00  4.687500E+00  0.000000E+00
  0.000000E+00  5.078125E+00  0.000000E+00
  0.000000E+00  5.468750E+00  0.000000E+00
  0.000000E+00  5.859375E+00  0.000000E+00
  0.000000E+00  6.250000E+00  0.000000E+00
  0.000000E+00  6.640625E+00  0.000000E+00
  0.000000E+00  7.031250E+00  0.000000E+00
  0.000000E+00  7.421875E+00  0.000000E+00
  0.000000E+00  7.812500E+00  0.000000E+00
  0.000000E+00  8.203125E+00  0.000000E+00
  0.000000E+00  8.593750E+00  0.000000E+00
  0.000000E+00  8.984375E+00  0.000000E+00
  0.000000E+00  9.375000E+00  0.000000E+00
  0.000000E+00  9.765625E+00  0.000000E+00
  0.000000E+00  1.015625E+01  0.000000E+00
  0.000000E+00  1.054688E+01  0.000000E+00
  0.000000E+00  1.093750E+01  0.000000E+00
  0.000000E+00  1.132812E+01  0.000000E+00
  0.000000E+00  1.171875E+01  0.000000E+00
  0.000000E+00  1.210938E+01  0.000000E+00
  0.000000E+00  1.250000E+01  0.000000E+00
  0.000000E+00  1.289062E+01  0.000000E+00
  0.000000E+00  1.328125E+01  0.000000E+00
  0.000000E+00  1.367188E+01  0.000000E+00
  0.000000E+00  1.406250E+01  0.000000E+00
  0.000000E+00  1.445312E+01  0.000000E+00
  0.000000E+00  1.484375E+01  0.000000E+00
  0.000000E+00  1.523438E+01  0.000000E+00
  0.000000E+00  1.562500E+01  0.000000E+00
  0.000000E+00  1.601562E+01  0.000000E+00
  0.000000E+00  1.640625E+01  0.000000E+00
  0.000000E+00  1.679688E+01  0.000000E+00
  0.000000E+00  1.718750E+01  0.000000E+00
  0.000000E+00  1.757812E+01  0.000000E+00
  0.000000E+00  1.796875E+01  0.000000E+00
  0.000000E+00  1.835938E+01  0.000000E+00
  0.000000E+00  1.875000E+01  0.000000E+00
  0.000000E+00  1.914062E+01  0.000000E+00
  0.000000E+00  1.953125E+01  0.000000E+00
  0.000000E+00  1.992188E+01  0.000000E+00
  0.000000E+00  2.031250E+01  0.000000E+00
  0.000000E+00  2.070312E+01  0.000000E+00
  0.000000E+00  2.109375E+01  0.000000E+00
  0.000000E+00  2.148438E+01  0.000000E+00
  0.000000E+00  2.187500E+01  0.000000E+00
  0.000000E+00  2.226562E+01  0.000000E+00
  0.000000E+00  2.265625E+01  0.000000E+00
  0.000000E+00  2.304688E+01  0.000000E+00
  0.000000E+00  2.343750E+01  0.000000E+00
  0.000000E+00  2.382812E+01  0.000000E+00
  0.000000E+00  2.421875E+01  0.000000E+00
  0.000000E+00  2.460938E+01  0.000000E+00
  3.906250E-01  0.000000E+00  0.000000E+00
  3.906250E-01  3.906250E-01  0.000000E+00
  3.906250E-01  7.812500E-01  0.000000E+00
  3.906250E-01  1.171875E+00  0.000000E+00
  3.906250E-01  1.562500E+00  0.000000E+00
  3.906250E-01  1.953125E+00  0.000000E+00
  3.906250E-01  2.343750E+00  0.000000E+00
  3.906250E-01  2.734375E+00  0.000000E+00
  3.906250E-01  3.125000E+00  0.000000E+00
  3.906250E-01  3.515625E+00  0.000000E+00
  3.906250E-01  3.906250E+00  0.000000E+00
  3.906250E-01  4.296875E+00  0.000000E+00
  3.906250E-01  4.687500E+00  0.000000E+00
  3.906250E-01  5.078125E+00  0.000000E+00
  3.906250E-01  5.468750E+00  0.000000E+00
  3.906250E-01  5.859375E+00  0.000000E+00
  3.906250E-01  6.250000E+00  0.000000E+00
  3.906250E-01  6.640625E+00  0.000000E+00
  3.906250E-01  7.031250E+00  0.000000E+00
  3.906250E-01  7.421875E+00  0.000000E+00
  3.906250E-01  7.812500E+00  0.000000E+00
  3.906250E-01  8.203125E+00  0.000000E+00
  3.906250E-01  8.593750E+00  0.000000E+00
  3.906250E-01  8.984375E+00  0.000000E+00
  3.906250E-01  9.375000E+00  0.000000E+00
  3.906250E-01  9.765625E+00  0.000000E+00
  3.906250E-01  1.015625E+01  0.000000E+00
  3.906250E-01  1.054688E+01  0.000000E+00
  3.906250E-01  1.093750E+01  0.000000E+00
  3.906250E-01  1.132812E+01  0.000000E+00
  3.906250E-01  1.171875E+01  0.000000E+00
  3.906250E-01  1.210938E+01  0.000000E+00
  3.906250E-01  1.250000E+01  0.000000E+00
  3.906250E-01  1.289062E+01  0.000000E+00
  3.906250E-01  1.328125E+01  0.000000E+00
  3.906250E-01  1.367188E+01  0.000000E+00
  3.906250E-01  1.406250E+01  0.000000E+00
  3.906250E-01  1.445312E+01  0.000000E+00
  3.906250E-01  1.484375E+01  0.000000E+00
  3.906250E-01  1.523438E+01  0.000000E+00
  3.906250E-01  1.562500E+01  0.000000E+00
  3.906250E-01  1.601562E+01  0.000000E+00
  3.906250E-01  1.640625E+01  0.000000E+00
  3.906250E-01  1.679688E+01  0.000000E+00
  3.906250E-01  1.718750E+01  0.000000E+00
  3.906250E-01  1.757812E+01  0.000000E+00
  3.906250E-01  1.796875E+01  0.000000E+00
  3.906250E-01  1.835938E+01  0.000000E+00
  3.906250E-01  1.875000E+01  0.000000E+00
  3.906250E-01  1.914062E+01  0.000000E+00
  3.906250E-01  1.953125E+01  0.000000E+00
  3.906250E-01  1.992188E+01  0.000000E+00
  3.906250E-01  2.031250E+01  0.000000E+00
  3.906250E-01  2.070312E+01  0.000000E+00
  3.906250E-01  2.109375E+01  0.000000E+00
  3.906250E-01  2.148438E+01  0.000000E+00
  3.906250E-01  2.187500E+01  0.000000E+00
  3.906250E-01  2.226562E+01  0.000000E+00
  3.906250E-01  2.265625E+01  0.000000E+00
  3.906250E-01  2.304688E+01  0.000000E+00
  3.906250E-01  2.343750E+01  0.000000E+00
  3.906250E-01  2.382812E+01  0.000000E+00
  3.906250E-01  2.421875E+01  0.000000E+00
  3.906250E-01  2.460938E+01  0.000000E+00
  7.812500E-01  0.000000E+00  0.000000E+00
  7.812500E-01  3.906250E-01  0.000000E+00
  7.812500E-01  7.812500E-01  0.000000E+00
  7.812500E-01  1.171875E+00  0.000000E+00
  7.812500E-01  1.562500E+00  0.000000E+00
  7.812500E-01  1.953125E+00  0.000000E+00
  7.812500E-01  2.343750E+00  0.000000E+00
  7.812500E-01  2.734375E+00  0.000000E+00
  7.812500E-01  3.125000E+00  0.000000E+00
  7.812500E-01  3.515625E+00  0.000000E+00
  7.812500E-01  3.906250E+00  0.000000E+00
  7.812500E-01  4.296875E+00  0.000000E+00
  7.812500E-01  4.687500E+00  0.000000E+00
  7.812500E-01  5.078125E+00  0.000000E+00
  7.812500E-01  5.468750E+00  0.000000E+00
  7.812500E-01  5.859375E+00  0.000000E+00
  7.812500E-01  6.250000E+00  0.000000E+00
  7.812500E-01  6.640625E+00  0.000000E+00
  7.812500E-01  7.031250E+00  0.000000E+00
  7.812500E-01  7.421875E+00  0.000000E+00
  7.812500E-01  7.812500E+00  0.000000E+00
  7.812500E-01  8.203125E+00  0.000000E+00
  7.812500E-01  8.593750E+00  0.000000E+00
  7.812500E-01  8.984375E+00  0.000000E+00
  7.812500E-01  9.375000E+00  0.000000E+00
  7.812500E-01  9.765625E+00  0.000000E+00
  7.812500E-01  1.015625E+01  0.000000E+00
  7.812500E-01  1.054688E+01  0.000000E+00
  7.812500E-01  1.093750E+01  0.000000E+00
  7.812500E-01  1.132812E+01  0.000000E+00
  7.812500E-01  1.171875E+01  0.000000E+00
  7.812500E-01  1.210938E+01  0.000000E+00
  7.812500E-01  1.250000E+01  0.000000E+00
  7.812500E-01  1.289062E+01  0.000000E+00
  7.812500E-01  1.328125E+01  0.000000E+00
  7.812500E-01  1.367188E+01  0.000000E+00
  7.812500E-01  1.406250E+01  0.000000E+00
  7.812500E-01  1.445312E+01  0.000000E+00
  7.812500E-01  1.484375E+01  0.000000E+00
  7.812500E-01  1.523438E+01  0.000000E+00
  7.812500E-01  1.562500E+01  0.000000E+00
  7.812500E-01  1.601562E+01  0.000000E+00
  7.812500E-01  1.640625E+01  0.000000E+00
  7.812500E-01  1.679688E+01  0.000000E+00
  7.812500E-01  1.718750E+01  0.000000E+00
  7.812500E-01  1.757812E+01  0.000000E+00
  7.812500E-01  1.796875E+01  0.000000E+00
  7.812500E-01  1.835938E+01  0.000000E+00
  7.812500E-01  1.875000E+01  0.000000E+00
  7.812500E-01  1.914062E+01  0.000000E+00
  7.812500E-01  1.953125E+01  0.000000E+00
  7.812500E-01  1.992188E+01  0.000000E+00
  7.812500E-01  2.031250E+01  0.000000E+00
  7.812500E-01  2.070312E+01  0.000000E+00
  7.812500E-01  2.109375E+01  0.000000E+00
  7.812500E-01  2.148438E+01  0.000000E+00
  7.812500E-01  2.187500E+01  0.000000E+00
  7.812500E-01  2.226562E+01  0.000000E+00
  7.812500E-01  2.265625E+01  0.000000E+00
  7.812500E-01  2.304688E+01  0.000000E+00
  7.812500E-01  2.343750E+01  0.000000E+00
  7.812500E-01  2.382812E+01  0.000000E+00
  7.812500E-01  2.421875E+01  0.000000E+00
  7.812500E-01  2.460938E+01  0.000000E+00
  1.171875E+00  0.000000E+00  0.000000E+00
  1.171875E+00  3.906250E-01  0.000000E+00
  1.171875E+00  7.812500E-01  0.000000E+00
  1.171875E+00  1.171875E+00  0.000000E+00
  1.171875E+00  1.562500E+00  0.000000E+00
  1.171875E+00  1.953125E+00  0.000000E+00
  1.171875E+00  2.343750E+00  0.000000E+00
  1.171875E+00  2.734375E+00  0.000000E+00
  1.171875E+00  3.125000E+00  0.000000E+00
  1.171875E+00  3.515625E+00  0.000000E+00
  1.171875E+00  3.906250E+00  0.000000E+00
  1.171875E+00  4.296875E+00  0.000000E+00
  1.171875E+00  4.687500E+00  0.000000E+00
  1.171875E+00  5.078125E+00  0.000000E+00
  1.171875E+00  5.468750E+00  0.000000E+00
  1.171875E+00  5.859375E+00  0.000000E+00
  1.171875E+00  6.250000E+00  0.000000E+00
  1.171875E+00  6.640625E+00  0.000000E+00
  1.171875E+00  7.031250E+00  0.000000E+00
  1.171875E+00  7.421875E+00  0.000000E+00
  1.171875E+00  7.812500E+00  0.000000E+00
  1.171875E+00  8.203125E+00  0.000000E+00
  1.171875E+00  8.593750E+00  0.000000E+00
  1.171875E+00  8.984375E+00  0.000000E+00
  1.171875E+00  9.375000E+00  0.000000E+00
  1.171875E+00  9.765625E+00  0.000000E+00
  1.171875E+00  1.015625E+01  0.000000E+00
  1.171875E+00  1.054688E+01  0.000000E+00
  1.171875E+00  1.093750E+01  0.000000E+00
  1.171875E+00  1.132812E+01  0.000000E+00
  1.171875E+00  1.171875E+01  0.000000E+00
  1.171875E+00  1.210938E+01  0.000000E+00
  1.171875E+00  1.250000E+01  0.000000E+00
  1.171875E+00  1.289062E+01  0.000000E+00
  1.171875E+00  1.328125E+01  0.000000E+00
  1.171875E+00  1.367188E+01  0.000000E+00
  1.171875E+00  1.406250E+01  0.000000E+00
  1.171875E+00  1.445312E+01  0.000000E+00
[...]
POINT_DATA   4096
SCALARS CON  float  1
LOOKUP_TABLE default
  4.305717E-01
  4.292733E-01
  4.346198E-01
  4.332541E-01
  4.336655E-01
  4.273139E-01
  4.282122E-01
  4.274664E-01
  4.330468E-01
  4.313285E-01
  4.319851E-01
  4.268449E-01
  4.282778E-01
  4.258611E-01
  4.287538E-01
  4.266258E-01
  4.306450E-01
  4.302993E-01
  4.341394E-01
  4.304209E-01
  4.302163E-01
  4.250176E-01
  4.261241E-01
  4.229138E-01
  4.248341E-01
  4.213700E-01
  4.236295E-01
  4.228306E-01
  4.294888E-01
  4.309547E-01
  4.341605E-01
  4.282536E-01
  4.272352E-01
  4.245759E-01
  4.302502E-01
  4.302490E-01
  4.321342E-01
  4.263780E-01
  4.260273E-01
  4.224102E-01
  4.253046E-01
  4.230525E-01
  4.252532E-01
  4.220883E-01
  4.244035E-01
  4.220411E-01
  4.256683E-01
  4.261012E-01
  4.334070E-01
  4.342155E-01
  4.356043E-01
  4.278145E-01
  4.254049E-01
  4.215292E-01
  4.269409E-01
  4.299940E-01
  4.384679E-01
  4.388647E-01
  4.401179E-01
  4.337176E-01
  4.334780E-01
  4.301933E-01
  4.325346E-01
  4.288233E-01
  4.305757E-01
  4.305448E-01
  4.377391E-01
  4.388134E-01
  4.384983E-01
  4.295410E-01
  4.264863E-01
  4.241761E-01
  4.294260E-01
  4.292746E-01
  4.310252E-01
  4.279907E-01
  4.305745E-01
  4.288093E-01
  4.296976E-01
  4.255021E-01
  4.278420E-01
  4.289336E-01
  4.348832E-01
  4.333849E-01
  4.324797E-01
  4.258574E-01
  4.252898E-01
  4.230851E-01
  4.266317E-01
  4.252827E-01
  4.271944E-01
  4.249750E-01
  4.287703E-01
  4.292648E-01
  4.328156E-01
  4.292995E-01
  4.289861E-01
  4.256155E-01
  4.283716E-01
  4.268083E-01
  4.282940E-01
  4.247873E-01
  4.265458E-01
  4.249289E-01
  4.270512E-01
  4.230364E-01
  4.225273E-01
  4.187896E-01
  4.211225E-01
  4.200270E-01
  4.240618E-01
  4.259369E-01
  4.343514E-01
  4.368293E-01
  4.379181E-01
  4.295263E-01
  4.260810E-01
  4.235579E-01
  4.306423E-01
  4.352046E-01
  4.420668E-01
  4.399712E-01
  4.381795E-01
  4.310574E-01
  4.308530E-01
  4.292194E-01
  4.322554E-01
  4.292578E-01
  4.239383E-01
  4.294900E-01
  4.379532E-01
  4.404569E-01
  4.382053E-01
  4.303790E-01
  4.264959E-01
  4.253072E-01
  4.287513E-01
  4.298058E-01
  4.312017E-01
  4.301305E-01
  4.312977E-01
  4.303215E-01
  4.303710E-01
  4.283072E-01
  4.294739E-01
  4.303799E-01
  4.333461E-01
  4.326292E-01
  4.317244E-01
  4.280057E-01
  4.268069E-01
  4.249869E-01
  4.260444E-01
  4.252158E-01
  4.257258E-01
  4.242208E-01
  4.254118E-01
  4.252702E-01
  4.262732E-01
  4.240311E-01
  4.239598E-01
  4.242676E-01
  4.284812E-01
  4.300195E-01
  4.305323E-01
  4.269509E-01
  4.256654E-01
  4.241030E-01
  4.249418E-01
  4.225702E-01
  4.207125E-01
  4.173332E-01
  4.179723E-01
  4.190821E-01
  4.238782E-01
  4.282488E-01
  4.350686E-01
  4.375891E-01
  4.369281E-01
  4.303592E-01
  4.263974E-01
  4.248268E-01
  4.295192E-01
  4.343449E-01
  4.402097E-01
  4.404606E-01
  4.378007E-01
  4.301673E-01
  4.249880E-01
  4.205366E-01
  4.202945E-01
  4.198522E-01
  4.235051E-01
  4.304739E-01
  4.369084E-01
  4.410594E-01
  4.362031E-01
  4.289334E-01
  4.219422E-01
  4.220228E-01
  4.240940E-01
  4.282549E-01
  4.295697E-01
  4.322245E-01
  4.328659E-01
  4.337437E-01
  4.306276E-01
  4.287460E-01
  4.272286E-01
  4.302377E-01
  4.321579E-01
  4.339442E-01
  4.315504E-01
  4.301095E-01
  4.278981E-01
  4.289690E-01
  4.290102E-01
  4.301977E-01
  4.280813E-01
  4.265112E-01
  4.235848E-01
  4.243664E-01
  4.252712E-01
  4.280694E-01
  4.277453E-01
  4.279550E-01
  4.261891E-01
  4.263606E-01
  4.248752E-01
  4.257660E-01
  4.262537E-01
  4.290006E-01
  4.280947E-01
  4.259862E-01
  4.213805E-01
  4.210521E-01
  4.220991E-01
  4.256416E-01
  4.263355E-01
  4.286828E-01
  4.305531E-01
  4.339480E-01
  4.322822E-01
  4.290916E-01
  4.248653E-01
  4.267769E-01
  4.309993E-01
  4.375974E-01
  4.395838E-01
  4.390135E-01
  4.330908E-01
  4.278711E-01
  4.225218E-01
  4.214596E-01
  4.202261E-01
  4.216589E-01
  4.209065E-01
  4.305376E-01
  4.339805E-01
  4.376899E-01
  4.303798E-01
  4.264962E-01
  4.198673E-01
  4.222885E-01
  4.219437E-01
  4.276154E-01
  4.279196E-01
  4.327716E-01
  4.308638E-01
  4.325945E-01
  4.282323E-01
  4.297569E-01
  4.273920E-01
  4.312041E-01
  4.295211E-01
  4.323752E-01
  4.295436E-01
  4.319227E-01
  4.285057E-01
  4.295511E-01
  4.251655E-01
  4.267538E-01
  4.235801E-01
  4.252679E-01
  4.213796E-01
  4.236958E-01
  4.224235E-01
  4.269305E-01
  4.251602E-01
  4.277666E-01
  4.253946E-01
  4.286976E-01
  4.261231E-01
  4.280530E-01
  4.250967E-01
  4.281578E-01
  4.252851E-01
  4.259864E-01
  4.212469E-01
  4.242630E-01
  4.250320E-01
  4.312815E-01
  4.295062E-01
  4.306296E-01
  4.266088E-01
  4.290213E-01
  4.260030E-01
  4.271758E-01
  4.232275E-01
  4.263501E-01
  4.261657E-01
  4.320163E-01
  4.320134E-01
  4.355798E-01
  4.312563E-01
  4.299246E-01
  4.224509E-01
  4.209458E-01
  4.160485E-01
  4.192447E-01
  4.257371E-01
  4.318832E-01
  4.319623E-01
  4.352037E-01
  4.279258E-01
  4.249271E-01
  4.174413E-01
  4.194920E-01
  4.182301E-01
  4.245075E-01
  4.250163E-01
  4.311853E-01
  4.294346E-01
  4.315161E-01
  4.259399E-01
  4.273395E-01
  4.250837E-01
  4.311021E-01
  4.308458E-01
  4.349514E-01
  4.309891E-01
  4.324150E-01
  4.272694E-01
  4.280329E-01
  4.230475E-01
  4.256245E-01
  4.231156E-01
  4.263218E-01
  4.226172E-01
  4.263110E-01
  4.265459E-01
  4.336024E-01
  4.312062E-01
  4.309517E-01
  4.236140E-01
  4.248033E-01
  4.225152E-01
  4.277622E-01
  4.271798E-01
  4.319072E-01
  4.277759E-01
  4.273695E-01
  4.219447E-01
  4.275217E-01
  4.307606E-01
  4.384349E-01
  4.338259E-01
  4.312861E-01
  4.235612E-01
  4.254921E-01
  4.229476E-01
  4.258756E-01
  4.222214E-01
  4.260282E-01
  4.251376E-01
  4.302119E-01
  4.275734E-01
  4.299966E-01
  4.262536E-01
  4.293365E-01
  4.265266E-01
  4.294601E-01
  4.255022E-01
  4.278714E-01
  4.251108E-01
  4.297572E-01
  4.292542E-01
  4.311487E-01
  4.263314E-01
  4.258708E-01
  4.217564E-01
  4.232565E-01
  4.210825E-01
  4.248619E-01
  4.251012E-01
  4.294255E-01
  4.270539E-01
  4.278150E-01
  4.244743E-01
  4.278203E-01
  4.283405E-01
  4.337571E-01
  4.331769E-01
  4.355076E-01
  4.320395E-01
  4.325282E-01
  4.270119E-01
  4.246465E-01
  4.180744E-01
  4.191616E-01
  4.190243E-01
  4.243437E-01
  4.237736E-01
  4.273794E-01
  4.275504E-01
  4.325814E-01
  4.304418E-01
  4.303343E-01
  4.260232E-01
  4.289379E-01
  4.285142E-01
  4.317561E-01
  4.289707E-01
  4.301815E-01
  4.259990E-01
  4.257856E-01
  4.222196E-01
  4.270466E-01
  4.306252E-01
  4.379753E-01
  4.354741E-01
  4.329594E-01
  4.254398E-01
  4.255316E-01
  4.235088E-01
  4.262609E-01
  4.233946E-01
  4.247668E-01
  4.218788E-01
  4.241189E-01
  4.223127E-01
  4.259880E-01
  4.258166E-01
  4.302411E-01
  4.287548E-01
  4.300674E-01
  4.256673E-01
  4.266677E-01
  4.270564E-01
  4.275403E-01
  4.274727E-01
  4.300473E-01
  4.289853E-01
  4.288039E-01
  4.257729E-01
  4.255379E-01
  4.239600E-01
  4.259536E-01
  4.265531E-01
  4.293184E-01
  4.283427E-01
  4.282934E-01
  4.258916E-01
  4.276014E-01
  4.294707E-01
  4.350306E-01
  4.370487E-01
  4.383294E-01
  4.344021E-01
  4.317414E-01
  4.267548E-01
  4.243459E-01
  4.206027E-01
  4.216237E-01
  4.228279E-01
  4.267200E-01
  4.269803E-01
  4.296064E-01
  4.318970E-01
  4.370936E-01
  4.364826E-01
  4.337941E-01
  4.281306E-01
  4.281195E-01
  4.288872E-01
  4.323769E-01
  4.322077E-01
  4.328941E-01
  4.295433E-01
  4.273996E-01
  4.242810E-01
  4.273859E-01
  4.311599E-01
  4.359847E-01
  4.338191E-01
  4.307675E-01
  4.262453E-01
  4.270210E-01
  4.267806E-01
  4.277699E-01
  4.253366E-01
  4.260521E-01
  4.258707E-01
  4.278457E-01
  4.257622E-01
  4.251171E-01
  4.235647E-01
  4.269412E-01
  4.293155E-01
  4.329363E-01
  4.316008E-01
  4.305573E-01
  4.219132E-01
  4.234553E-01
  4.251038E-01
  4.282596E-01
  4.296885E-01
  4.317439E-01
  4.317320E-01
  4.318683E-01
  4.301479E-01
  4.302984E-01
  4.301510E-01
  4.309538E-01
  4.291487E-01
  4.281060E-01
  4.271940E-01
  4.296771E-01
  4.322031E-01
  4.356956E-01
  4.362439E-01
  4.358260E-01
  4.326457E-01
  4.304453E-01
  4.270743E-01
  4.247810E-01
  4.218261E-01
  4.223722E-01
  4.242538E-01
  4.277945E-01
  4.283342E-01
  4.289726E-01
  4.293016E-01
  4.318965E-01
  4.322176E-01
  4.321770E-01
  4.313312E-01
  4.336028E-01
  4.347777E-01
  4.348041E-01
  4.311865E-01
  4.286492E-01
  4.261867E-01
  4.260939E-01
  4.253721E-01
  4.266094E-01
  4.272994E-01
  4.290290E-01
  4.283211E-01
  4.280808E-01
  4.273106E-01
  4.291065E-01
  4.296874E-01
  4.299770E-01
  4.277529E-01
  4.273358E-01
  4.272875E-01
  4.291421E-01
  4.286965E-01
  4.280742E-01
  4.260350E-01
  4.262791E-01
  4.260431E-01
  4.265278E-01
  4.245572E-01
  4.233734E-01
  4.224455E-01
  4.223814E-01
  4.243631E-01
  4.285982E-01
  4.310353E-01
  4.324313E-01
  4.316763E-01
  4.314768E-01
  4.306347E-01
  4.311814E-01
  4.313484E-01
  4.322354E-01
  4.312744E-01
  4.301303E-01
  4.279773E-01
  4.278422E-01
  4.288284E-01
  4.322428E-01
  4.343853E-01
  4.348038E-01
  4.315200E-01
  4.283847E-01
  4.258275E-01
  4.260103E-01
  4.266493E-01
  4.291538E-01
  4.311373E-01
  4.326662E-01
  4.310107E-01
  4.295668E-01
  4.292279E-01
  4.317465E-01
  4.326483E-01
  4.320621E-01
  4.299549E-01
  4.303666E-01
  4.311486E-01
  4.318314E-01
  4.298222E-01
  4.280503E-01
  4.261305E-01
  4.262476E-01
  4.265425E-01
  4.280782E-01
  4.278842E-01
  4.269173E-01
  4.244014E-01
  4.243181E-01
  4.262309E-01
  4.304443E-01
  4.320951E-01
  4.314031E-01
  4.286662E-01
  4.290913E-01
  4.318283E-01
  4.356416E-01
  4.350354E-01
  4.313607E-01
  4.261692E-01
  4.245819E-01
  4.252399E-01
  4.275155E-01
  4.271548E-01
  4.254282E-01
  4.198598E-01
  4.214909E-01
  4.236677E-01
  4.271121E-01
  4.290710E-01
  4.313094E-01
  4.317904E-01
  4.322200E-01
  4.310663E-01
  4.313307E-01
  4.313983E-01
  4.320549E-01
  4.302708E-01
  4.285552E-01
  4.265591E-01
  4.270712E-01
  4.279359E-01
  4.303738E-01
  4.314663E-01
  4.320110E-01
  4.297459E-01
  4.276157E-01
  4.250508E-01
  4.247106E-01
  4.250495E-01
  4.281546E-01
  4.311613E-01
  4.336387E-01
  4.318472E-01
  4.286997E-01
  4.251072E-01
  4.246837E-01
  4.249705E-01
  4.269229E-01
  4.286134E-01
  4.317408E-01
  4.326359E-01
  4.313647E-01
  4.264423E-01
  4.226193E-01
  4.206962E-01
  4.230043E-01
  4.256497E-01
  4.279098E-01
  4.267272E-01
  4.251785E-01
  4.235833E-01
  4.253509E-01
  4.282305E-01
  4.321033E-01
  4.326927E-01
  4.313426E-01
  4.280332E-01
  4.274858E-01
  4.289198E-01
  4.326882E-01
  4.340095E-01
  4.334199E-01
  4.301507E-01
  4.281787E-01
  4.262248E-01
  4.253240E-01
  4.228101E-01
  4.211823E-01
  4.234530E-01
  4.235766E-01
  4.245107E-01
  4.279514E-01
  4.291356E-01
  4.301658E-01
  4.284941E-01
  4.280631E-01
  4.267304E-01
  4.279479E-01
  4.285963E-01
  4.306166E-01
  4.297448E-01
  4.286319E-01
  4.254076E-01
  4.248161E-01
  4.251867E-01
  4.293258E-01
  4.323490E-01
  4.345607E-01
  4.317495E-01
  4.283876E-01
  4.242801E-01
  4.241965E-01
  4.253587E-01
  4.298601E-01
  4.330483E-01
  4.356032E-01
  4.332765E-01
  4.304979E-01
  4.271732E-01
  4.274776E-01
  4.270454E-01
  4.272627E-01
  4.256275E-01
  4.265223E-01
  4.269219E-01
  4.281580E-01
  4.261705E-01
  4.246572E-01
  4.223954E-01
  4.236364E-01
  4.253315E-01
  4.287824E-01
  4.290113E-01
  4.285906E-01
  4.263608E-01
  4.275344E-01
  4.293936E-01
  4.326338E-01
  4.316222E-01
  4.291841E-01
  4.251162E-01
  4.254762E-01
  4.277883E-01
  4.324622E-01
  4.334318E-01
  4.330233E-01
  4.302907E-01
  4.303505E-01
  4.302125E-01
  4.311570E-01
  4.288889E-01
  4.267518E-01
  4.217822E-01
  4.244285E-01
  4.247925E-01
  4.276391E-01
  4.278163E-01
  4.302434E-01
  4.289459E-01
  4.288593E-01
  4.258538E-01
  4.267642E-01
  4.266343E-01
  4.289712E-01
  4.269823E-01
  4.264147E-01
  4.240410E-01
  4.261799E-01
  4.271604E-01
  4.311123E-01
  4.320121E-01
  4.343247E-01
  4.320993E-01
  4.305604E-01
  4.254975E-01
  4.237260E-01
  4.215526E-01
  4.247632E-01
  4.272586E-01
  4.318657E-01
  4.311699E-01
  4.303351E-01
  4.261584E-01
  4.257807E-01
  4.242967E-01
  4.262389E-01
  4.261109E-01
  4.289366E-01
  4.285974E-01
  4.291103E-01
  4.252789E-01
  4.238864E-01
  4.215557E-01
  4.239217E-01
  4.246626E-01
  4.274430E-01
  4.266369E-01
  4.282478E-01
  4.279432E-01
  4.308285E-01
  4.306624E-01
  4.315272E-01
  4.279433E-01
  4.261418E-01
  4.224986E-01
  4.231973E-01
  4.231071E-01
  4.268175E-01
  4.283499E-01
  4.321746E-01
  4.324863E-01
  4.339571E-01
  4.308954E-01
  4.288105E-01
  4.239049E-01
  4.230835E-01
  4.254641E-01
  4.267223E-01
  4.260856E-01
  4.287641E-01
  4.288745E-01
  4.303930E-01
  4.277201E-01
  4.267492E-01
  4.237030E-01
  4.246873E-01
  4.245195E-01
  4.271820E-01
  4.262569E-01
  4.266982E-01
  4.245026E-01
  4.260299E-01
  4.264554E-01
  4.303734E-01
  4.318141E-01
  4.348559E-01
  4.332512E-01
  4.320126E-01
  4.271852E-01
  4.255978E-01
  4.231427E-01
  4.250670E-01
  4.257522E-01
  4.291944E-01
  4.290520E-01
  4.303449E-01
  4.290035E-01
  4.308040E-01
  4.296564E-01
  4.295333E-01
  4.258386E-01
  4.254922E-01
  4.242838E-01
  4.267083E-01
  4.266372E-01
  4.286609E-01
  4.274114E-01
  4.280813E-01
  4.261442E-01
  4.274577E-01
  4.269394E-01
  4.290723E-01
  4.281839E-01
  4.294060E-01
  4.276234E-01
  4.276343E-01
  4.242033E-01
  4.234309E-01
  4.217361E-01
  4.247471E-01
  4.262098E-01
  4.295556E-01
  4.290272E-01
  4.304600E-01
  4.295024E-01
  4.311448E-01
  4.294988E-01
  4.295552E-01
  4.268522E-01
  4.271822E-01
  4.258132E-01
  4.274366E-01
  4.267509E-01
  4.269164E-01
  4.274974E-01
  4.295313E-01
  4.297768E-01
  4.290410E-01
  4.266117E-01
  4.256998E-01
  4.251653E-01
  4.256142E-01
  4.246421E-01
  4.247054E-01
  4.255612E-01
  4.284958E-01
  4.299281E-01
  4.304280E-01
  4.296547E-01
  4.308960E-01
  4.320978E-01
  4.327647E-01
  4.299959E-01
  4.262879E-01
  4.220127E-01
  4.204077E-01
  4.205165E-01
  4.233109E-01
  4.253836E-01
  4.267337E-01
  4.258685E-01
  4.258610E-01
  4.259874E-01
  4.274839E-01
  4.280191E-01
  4.288055E-01
  4.279867E-01
  4.273024E-01
  4.259948E-01
  4.266045E-01
  4.272878E-01
  4.282966E-01
  4.270957E-01
  4.260304E-01
  4.250496E-01
  4.262767E-01
  4.269695E-01
  4.273049E-01
  4.253707E-01
  4.236910E-01
  4.219663E-01
  4.227896E-01
  4.245007E-01
  4.273673E-01
  4.281957E-01
  4.283784E-01
  4.275413E-01
  4.282396E-01
  4.281897E-01
  4.275886E-01
  4.245523E-01
  4.223231E-01
  4.213579E-01
  4.236466E-01
  4.333682E-01
  4.307525E-01
  4.286793E-01
  4.265275E-01
  4.276382E-01
  4.275976E-01
  4.283829E-01
  4.270137E-01
  4.270287E-01
  4.256084E-01
  4.258195E-01
  4.246494E-01
  4.253008E-01
  4.251722E-01
  4.276349E-01
  4.290388E-01
  4.310423E-01
  4.301205E-01
  4.306398E-01
  4.308329E-01
  4.330225E-01
  4.322317E-01
  4.308311E-01
  4.268228E-01
  4.245664E-01
  4.217721E-01
  4.220170E-01
  4.223567E-01
  4.247832E-01
  4.249891E-01
  4.261421E-01
  4.263242E-01
  4.286480E-01
  4.287617E-01
  4.288474E-01
  4.264759E-01
  4.259039E-01
  4.248965E-01
  4.267735E-01
  4.279602E-01
  4.300287E-01
  4.288197E-01
  4.281533E-01
  4.268336E-01
  4.283793E-01
  4.281170E-01
  4.275019E-01
  4.239986E-01
  4.225512E-01
  4.212466E-01
  4.229009E-01
  4.241817E-01
  4.281887E-01
  4.311354E-01
  4.340184E-01
  4.321496E-01
  4.292730E-01
  4.245680E-01
  4.226307E-01
  4.206182E-01
  4.215909E-01
  4.230765E-01
  4.279669E-01
  4.312461E-01
  4.357590E-01
  4.331322E-01
  4.297991E-01
  4.253801E-01
  4.255959E-01
  4.259144E-01
  4.284837E-01
  4.282927E-01
  4.291639E-01
  4.275785E-01
  4.274402E-01
  4.246999E-01
  4.239384E-01
  4.231150E-01
  4.272300E-01
  4.307960E-01
  4.342373E-01
  4.321104E-01
  4.305766E-01
  4.289019E-01
  4.312136E-01
  4.310317E-01
  4.301920E-01
  4.253035E-01
  4.222279E-01
  4.188278E-01
  4.198629E-01
  4.210946E-01
  4.243019E-01
  4.234378E-01
  4.227497E-01
  4.211834E-01
  4.245367E-01
  4.278367E-01
  4.321684E-01
  4.317815E-01
  4.307170E-01
  4.266479E-01
  4.253411E-01
  4.238933E-01
  4.256299E-01
  4.254803E-01
  4.269681E-01
  4.268536E-01
  4.291390E-01
  4.286568E-01
  4.280139E-01
  4.239686E-01
  4.225844E-01
  4.215364E-01
  4.245130E-01
  4.266534E-01
  4.307986E-01
  4.317597E-01
  4.321159E-01
  4.280551E-01
  4.253720E-01
  4.219422E-01
  4.215600E-01
  4.194660E-01
  4.199103E-01
  4.208244E-01
  4.268019E-01
  4.317568E-01
  4.403111E-01
  4.358336E-01
  4.310608E-01
  4.270153E-01
  4.260723E-01
  4.249341E-01
  4.250297E-01
  4.247306E-01
  4.261447E-01
  4.264035E-01
  4.266468E-01
  4.248125E-01
  4.238512E-01
  4.230767E-01
  4.253210E-01
  4.278439E-01
  4.306756E-01
  4.304409E-01
  4.299530E-01
  4.287941E-01
  4.293517E-01
  4.286093E-01
  4.279325E-01
  4.256298E-01
  4.244204E-01
  4.228971E-01
  4.237135E-01
  4.247710E-01
  4.266266E-01
  4.258865E-01
  4.255562E-01
  4.260319E-01
  4.298264E-01
  4.323970E-01
  4.331236E-01
  4.300266E-01
  4.274031E-01
  4.251826E-01
  4.257483E-01
  4.259874E-01
  4.265845E-01
  4.255340E-01
  4.265482E-01
  4.287184E-01
  4.323240E-01
  4.318978E-01
  4.284233E-01
  4.228125E-01
  4.209577E-01
  4.218074E-01
  4.253827E-01
  4.276167E-01
  4.302015E-01
  4.311912E-01
  4.316899E-01
  4.287597E-01
  4.253853E-01
  4.216475E-01
  4.207405E-01
  4.205419E-01
  4.231975E-01
  4.273578E-01
  4.343837E-01
  4.391245E-01
  4.355301E-01
  4.334036E-01
  4.302290E-01
  4.264257E-01
  4.253576E-01
  4.246235E-01
  4.252613E-01
  4.247776E-01
  4.254014E-01
  4.252652E-01
  4.258333E-01
  4.242606E-01
  4.228511E-01
  4.213403E-01
  4.232685E-01
  4.258396E-01
  4.283943E-01
  4.271463E-01
  4.252698E-01
  4.233984E-01
  4.248391E-01
  4.264130E-01
  4.280253E-01
  4.266066E-01
  4.249559E-01
  4.228808E-01
  4.239425E-01
  4.258375E-01
  4.282626E-01
  4.271568E-01
  4.256483E-01
  4.249767E-01
  4.285864E-01
  4.321492E-01
  4.343670E-01
  4.322605E-01
  4.295316E-01
  4.261111E-01
  4.248407E-01
  4.235423E-01
  4.239115E-01
  4.239796E-01
  4.261246E-01
  4.281266E-01
  4.305751E-01
  4.295441E-01
  4.268107E-01
  4.224208E-01
  4.209869E-01
  4.213170E-01
  4.242803E-01
  4.263054E-01
  4.284952E-01
  4.282590E-01
  4.274046E-01
  4.248281E-01
  4.244972E-01
  4.253103E-01
  4.279075E-01
  4.281532E-01
  4.279921E-01
  4.275023E-01
  4.303334E-01
  4.332966E-01
  4.335437E-01
  4.298702E-01
  4.296066E-01
  4.266567E-01
  4.275582E-01
  4.245533E-01
  4.245625E-01
  4.213984E-01
  4.225615E-01
  4.211542E-01
  4.237417E-01
  4.230033E-01
  4.254411E-01
  4.239464E-01
  4.255816E-01
  4.235758E-01
  4.247380E-01
  4.219947E-01
  4.226439E-01
  4.207106E-01
  4.238370E-01
  4.249213E-01
  4.295813E-01
  4.293509E-01
  4.307869E-01
  4.281119E-01
  4.299039E-01
  4.293641E-01
  4.318490E-01
  4.293597E-01
  4.303084E-01
  4.298133E-01
  4.341469E-01
  4.331049E-01
  4.318985E-01
  4.255709E-01
  4.244632E-01
  4.228785E-01
  4.263475E-01
  4.259248E-01
  4.276843E-01
  4.255475E-01
  4.280140E-01
  4.284080E-01
  4.316898E-01
  4.285481E-01
  4.261751E-01
  4.204663E-01
  4.208032E-01
  4.202348E-01
  4.239314E-01
  4.238544E-01
  4.270601E-01
  4.268537E-01
  4.297121E-01
  4.284173E-01
  4.306921E-01
  4.304553E-01
  4.341662E-01
  4.333735E-01
  4.346481E-01
  4.321578E-01
  4.339481E-01
  4.325182E-01
  4.266914E-01
  4.252040E-01
  4.285347E-01
  4.254669E-01
  4.280399E-01
  4.252708E-01
  4.278426E-01
  4.237252E-01
  4.245458E-01
  4.204462E-01
  4.236114E-01
  4.223994E-01
  4.270384E-01
  4.257567E-01
  4.296418E-01
  4.267530E-01
  4.277050E-01
  4.215735E-01
  4.214079E-01
  4.181075E-01
  4.236689E-01
  4.254409E-01
  4.318044E-01
  4.294734E-01
  4.305117E-01
  4.261965E-01
  4.296984E-01
  4.289630E-01
  4.327620E-01
  4.284429E-01
  4.290589E-01
  4.259242E-01
  4.304184E-01
  4.287413E-01
  4.305546E-01
  4.255775E-01
  4.269297E-01
  4.236164E-01
  4.260775E-01
  4.229114E-01
  4.261499E-01
  4.249250E-01
  4.297817E-01
  4.281553E-01
  4.305836E-01
  4.259710E-01
  4.266780E-01
  4.224103E-01
  4.246632E-01