# vtk DataFile Version 2.0
title
ASCII
DATASET STRUCTURED_GRID
DIMENSIONS   64   64    1
POINTS   4096  float
  0.000000E+00  0.000000E+00  0.000000E+00
  0.000000E+00  3.906250E-01  0.000000E+00
  0.000000E+00  7.812500E-01  0.000000E+00
  0.000000E+00  1.171875E+00  0.000000E+00
  0.000000E+00  1.562500E+00  0.000000E+00
  0.000000E+00  1.953125E+00  0.000000E+00
  0.000000E+00  2.343750E+00  0.000000E+00
  0.000000E+00  2.734375E+00  0.000000E+00
  0.000000E+00  3.125000E+00  0.000000E+00
  0.000000E+00  3.515625E+00  0.000000E+00
  0.000000E+00  3.906250E+00  0.000000E+00
  0.000000E+00  4.296875E+00  0.000000E+00
  0.000000E+00  4.687500E+00  0.000000E+00
  0.000000E+00  5.078125E+00  0.000000E+00
  0.000000E+00  5.468750E+00  0.000000E+00
  0.000000E+00  5.859375E+00  0.000000E+00
  0.000000E+00  6.250000E+00  0.000000E+00
  0.000000E+00  6.640625E+00  0.000000E+00
  0.000000E+00  7.031250E+00  0.000000E+00
  0.000000E+00  7.421875E+00  0.000000E+00
  0.000000E+00  7.812500E+00  0.000000E+00
  0.000000E+00  8.203125E+00  0.000000E+00
  0.000000E+00  8.593750E+00  0.000000E+00
  0.000000E+00  8.984375E+00  0.000000E+00
  0.000000E+00  9.375000E+00  0.000000E+00
  0.000000E+00  9.765625E+00  0.000000E+00
  0.000000E+00  1.015625E+01  0.000000E+00
  0.000000E+00  1.054688E+01  0.000000E+00
  0.000000E+00  1.093750E+01  0.000000E+00
  0.000000E+00  1.132812E+01  0.000000E+00
  0.000000E+00  1.171875E+01  0.000000E+00
  0.000000E+00  1.210938E+01  0.000000E+00
  0.000000E+00  1.250000E+01  0.000000E+00
  0.000000E+00  1.289062E+01  0.000000E+00
  0.000000E+00  1.328125E+01  0.000000E+00
  0.000000E+00  1.367188E+01  0.000000E+00
  0.000000E+00  1.406250E+01  0.000000E+00
  0.000000E+00  1.445312E+01  0.000000E+00
  0.000000E+00  1.484375E+01  0.000000E+00
  0.000000E+00  1.523438E+01  0.000000E+00
  0.000000E+00  1.562500E+01  0.000000E+00
  0.000000E+00  1.601562E+01  0.000000E+00
  0.000000E+00  1.640625E+01  0.000000E+00
  0.000000E+00  1.679688E+01  0.000000E+00
  0.000000E+00  1.718750E+01  0.000000E+00
  0.000000E+00  1.757812E+01  0.000000E+00
  0.000000E+00  1.796875E+01  0.000000E+00
  0.000000E+00  1.835938E+01  0.000000E+00
  0.000000E+00  1.875000E+01  0.000000E+00
  0.000000E+00  1.914062E+01  0.000000E+00
  0.000000E+00  1.953125E+01  0.000000E+00
  0.000000E+00  1.992188E+01  0.000000E+00
  0.000000E+00  2.031250E+01  0.000000E+00
  0.000000E+00  2.070312E+01  0.000000E+00
  0.000000E+00  2.109375E+01  0.000000E+00
  0.000000E+00  2.148438E+01  0.000000E+00
  0.000000E+00  2.187500E+01  0.000000E+00
  0.000000E+00  2.226562E+01  0.000000E+00
  0.000000E+00  2.265625E+01  0.000000E+00
  0.000000E+00  2.304688E+01  0.000000E+00
  0.000000E+00  2.343750E+01  0.000000E+00
  0.000000E+00  2.382812E+01  0.000000E+00
  0.000000E+00  2.421875E+01  0.000000E+00
  0.000000E+00  2.460938E+01  0.000000E+00
  3.906250E-01  0.000000E+00  0.000000E+00
  3.906250E-01  3.906250E-01  0.000000E+00
  3.906250E-01  7.812500E-01  0.000000E+00
  3.906250E-01  1.171875E+00  0.000000E+00
  3.906250E-01  1.562500E+00  0.000000E+00
  3.906250E-01  1.953125E+00  0.000000E+00
  3.906250E-01  2.343750E+00  0.000000E+00
  3.906250E-01  2.734375E+00  0.000000E+00
  3.906250E-01  3.125000E+00  0.000000E+00
  3.906250E-01  3.515625E+00  0.000000E+00
  3.906250E-01  3.906250E+00  0.000000E+00
  3.906250E-01  4.296875E+00  0.000000E+00
  3.906250E-01  4.687500E+00  0.000000E+00
  3.906250E-01  5.078125E+00  0.000000E+00
  3.906250E-01  5.468750E+00  0.000000E+00
  3.906250E-01  5.859375E+00  0.000000E+00
  3.906250E-01  6.250000E+00  0.000000E+00
  3.906250E-01  6.640625E+00  0.000000E+00
  3.906250E-01  7.031250E+00  0.000000E+00
  3.906250E-01  7.421875E+00  0.000000E+00
  3.906250E-01  7.812500E+00  0.000000E+00
  3.906250E-01  8.203125E+00  0.000000E+00
  3.906250E-01  8.593750E+00  0.000000E+00
  3.906250E-01  8.984375E+00  0.000000E+00
  3.906250E-01  9.375000E+00  0.000000E+00
  3.906250E-01  9.765625E+00  0.000000E+00
  3.906250E-01  1.015625E+01  0.000000E+00
  3.906250E-01  1.054688E+01  0.000000E+00
  3.906250E-01  1.093750E+01  0.000000E+00
  3.906250E-01  1.132812E+01  0.000000E+00
  3.906250E-01  1.171875E+01  0.000000E+00
  3.906250E-01  1.210938E+01  0.000000E+00
  3.906250E-01  1.250000E+01  0.000000E+00
  3.906250E-01  1.289062E+01  0.000000E+00
  3.906250E-01  1.328125E+01  0.000000E+00
  3.906250E-01  1.367188E+01  0.000000E+00
  3.906250E-01  1.406250E+01  0.000000E+00
  3.906250E-01  1.445312E+01  0.000000E+00
  3.906250E-01  1.484375E+01  0.000000E+00
  3.906250E-01  1.523438E+01  0.000000E+00
  3.906250E-01  1.562500E+01  0.000000E+00
  3.906250E-01  1.601562E+01  0.000000E+00
  3.906250E-01  1.640625E+01  0.000000E+00
  3.906250E-01  1.679688E+01  0.000000E+00
  3.906250E-01  1.718750E+01  0.000000E+00
  3.906250E-01  1.757812E+01  0.000000E+00
  3.906250E-01  1.796875E+01  0.000000E+00
  3.906250E-01  1.835938E+01  0.000000E+00
  3.906250E-01  1.875000E+01  0.000000E+00
  3.906250E-01  1.914062E+01  0.000000E+00
  3.906250E-01  1.953125E+01  0.000000E+00
  3.906250E-01  1.992188E+01  0.000000E+00
  3.906250E-01  2.031250E+01  0.000000E+00
  3.906250E-01  2.070312E+01  0.000000E+00
  3.906250E-01  2.109375E+01  0.000000E+00
  3.906250E-01  2.148438E+01  0.000000E+00
  3.906250E-01  2.187500E+01  0.000000E+00
  3.906250E-01  2.226562E+01  0.000000E+00
  3.906250E-01  2.265625E+01  0.000000E+00
  3.906250E-01  2.304688E+01  0.000000E+00
  3.906250E-01  2.343750E+01  0.000000E+00
  3.906250E-01  2.382812E+01  0.000000E+00
  3.906250E-01  2.421875E+01  0.000000E+00
  3.906250E-01  2.460938E+01  0.000000E+00
  7.812500E-01  0.000000E+00  0.000000E+00
  7.812500E-01  3.906250E-01  0.000000E+00
  7.812500E-01  7.812500E-01  0.000000E+00
  7.812500E-01  1.171875E+00  0.000000E+00
  7.812500E-01  1.562500E+00  0.000000E+00
  7.812500E-01  1.953125E+00  0.000000E+00
  7.812500E-01  2.343750E+00  0.000000E+00
  7.812500E-01  2.734375E+00  0.000000E+00
  7.812500E-01  3.125000E+00  0.000000E+00
  7.812500E-01  3.515625E+00  0.000000E+00
  7.812500E-01  3.906250E+00  0.000000E+00
  7.812500E-01  4.296875E+00  0.000000E+00
  7.812500E-01  4.687500E+00  0.000000E+00
  7.812500E-01  5.078125E+00  0.000000E+00
  7.812500E-01  5.468750E+00  0.000000E+00
  7.812500E-01  5.859375E+00  0.000000E+00
  7.812500E-01  6.250000E+00  0.000000E+00
  7.812500E-01  6.640625E+00  0.000000E+00
  7.812500E-01  7.031250E+00  0.000000E+00
  7.812500E-01  7.421875E+00  0.000000E+00
  7.812500E-01  7.812500E+00  0.000000E+00
  7.812500E-01  8.203125E+00  0.000000E+00
  7.812500E-01  8.593750E+00  0.000000E+00
  7.812500E-01  8.984375E+00  0.000000E+00
  7.812500E-01  9.375000E+00  0.000000E+00
  7.812500E-01  9.765625E+00  0.000000E+00
  7.812500E-01  1.015625E+01  0.000000E+00
  7.812500E-01  1.054688E+01  0.000000E+00
  7.812500E-01  1.093750E+01  0.000000E+00
  7.812500E-01  1.132812E+01  0.000000E+00
  7.812500E-01  1.171875E+01  0.000000E+00
  7.812500E-01  1.210938E+01  0.000000E+00
  7.812500E-01  1.250000E+01  0.000000E+00
  7.812500E-01  1.289062E+01  0.000000E+00
  7.812500E-01  1.328125E+01  0.000000E+00
  7.812500E-01  1.367188E+01  0.000000E+00
  7.812500E-01  1.406250E+01  0.000000E+00
  7.812500E-01  1.445312E+01  0.000000E+00
  7.812500E-01  1.484375E+01  0.000000E+00
  7.812500E-01  1.523438E+01  0.000000E+00
  7.812500E-01  1.562500E+01  0.000000E+00
  7.812500E-01  1.601562E+01  0.000000E+00
  7.812500E-01  1.640625E+01  0.000000E+00
  7.812500E-01  1.679688E+01  0.000000E+00
  7.812500E-01  1.718750E+01  0.000000E+00
  7.812500E-01  1.757812E+01  0.000000E+00
  7.812500E-01  1.796875E+01  0.000000E+00
  7.812500E-01  1.835938E+01  0.000000E+00
  7.812500E-01  1.875000E+01  0.000000E+00
  7.812500E-01  1.914062E+01  0.000000E+00
  7.812500E-01  1.953125E+01  0.000000E+00
  7.812500E-01  1.992188E+01  0.000000E+00
  7.812500E-01  2.031250E+01  0.000000E+00
  7.812500E-01  2.070312E+01  0.000000E+00
  7.812500E-01  2.109375E+01  0.000000E+00
  7.812500E-01  2.148438E+01  0.000000E+00
  7.812500E-01  2.187500E+01  0.000000E+00
  7.812500E-01  2.226562E+01  0.000000E+00
  7.812500E-01  2.265625E+01  0.000000E+00
  7.812500E-01  2.304688E+01  0.000000E+00
  7.812500E-01  2.343750E+01  0.000000E+00
  7.812500E-01  2.382812E+01  0.000000E+00
  7.812500E-01  2.421875E+01  0.000000E+00
  7.812500E-01  2.460938E+01  0.000000E+00
  1.171875E+00  0.000000E+00  0.000000E+00
  1.171875E+00  3.906250E-01  0.000000E+00
  1.171875E+00  7.812500E-01  0.000000E+00
  1.171875E+00  1.171875E+00  0.000000E+00
  1.171875E+00  1.562500E+00  0.000000E+00
  1.171875E+00  1.953125E+00  0.000000E+00
  1.171875E+00  2.343750E+00  0.000000E+00
  1.171875E+00  2.734375E+00  0.000000E+00
  1.171875E+00  3.125000E+00  0.000000E+00
  1.171875E+00  3.515625E+00  0.000000E+00
  1.171875E+00  3.906250E+00  0.000000E+00
  1.171875E+00  4.296875E+00  0.000000E+00
  1.171875E+00  4.687500E+00  0.000000E+00
  1.171875E+00  5.078125E+00  0.000000E+00
  1.171875E+00  5.468750E+00  0.000000E+00
  1.171875E+00  5.859375E+00  0.000000E+00
  1.171875E+00  6.250000E+00  0.000000E+00
  1.171875E+00  6.640625E+00  0.000000E+00
  1.171875E+00  7.031250E+00  0.000000E+00
  1.171875E+00  7.421875E+00  0.000000E+00
  1.171875E+00  7.812500E+00  0.000000E+00
  1.171875E+00  8.203125E+00  0.000000E+00
  1.171875E+00  8.593750E+00  0.000000E+00
  1.171875E+00  8.984375E+00  0.000000E+00
  1.171875E+00  9.375000E+00  0.000000E+00
  1.171875E+00  9.765625E+00  0.000000E+00
  1.171875E+00  1.015625E+01  0.000000E+00
  1.171875E+00  1.054688E+01  0.000000E+00
  1.171875E+00  1.093750E+01  0.000000E+00
  1.171875E+00  1.132812E+01  0.000000E+00
  1.171875E+00  1.171875E+01  0.000000E+00
  1.171875E+00  1.210938E+01  0.000000E+00
  1.171875E+00  1.250000E+01  0.000000E+00
  1.171875E+00  1.289062E+01  0.000000E+00
  1.171875E+00  1.328125E+01  0.000000E+00
  1.171875E+00  1.367188E+01  0.000000E+00
  1.171875E+00  1.406250E+01  0.000000E+00
  1.171875E+00  1.445312E+01  0.000000E+00
[...]
POINT_DATA   4096
SCALARS CON  float  1
LOOKUP_TABLE default
  3.397307E-01
  3.396538E-01
  3.438484E-01
  3.415997E-01
  3.429357E-01
  3.388710E-01
  3.403598E-01
  3.379899E-01
  3.411908E-01
  3.392555E-01
  3.414476E-01
  3.379473E-01
  3.392530E-01
  3.362491E-01
  3.391519E-01
  3.379881E-01
  3.420077E-01
  3.406092E-01
  3.431923E-01
  3.397948E-01
  3.406777E-01
  3.364079E-01
  3.371515E-01
  3.332522E-01
  3.346795E-01
  3.319423E-01
  3.350254E-01
  3.340567E-01
  3.382450E-01
  3.369948E-01
  3.396971E-01
  3.367181E-01
  3.386503E-01
  3.362728E-01
  3.394336E-01
  3.377124E-01
  3.402658E-01
  3.369854E-01
  3.380197E-01
  3.340727E-01
  3.353357E-01
  3.320864E-01
  3.340084E-01
  3.313393E-01
  3.340647E-01
  3.328139E-01
  3.375511E-01
  3.381464E-01
  3.434097E-01
  3.421393E-01
  3.435703E-01
  3.383565E-01
  3.380732E-01
  3.346654E-01
  3.387674E-01
  3.399889E-01
  3.464069E-01
  3.460948E-01
  3.480487E-01
  3.427497E-01
  3.416146E-01
  3.362166E-01
  3.373263E-01
  3.353638E-01
  3.414858E-01
  3.422341E-01
  3.458259E-01
  3.442307E-01
  3.441478E-01
  3.395201E-01
  3.387252E-01
  3.359501E-01
  3.381672E-01
  3.378008E-01
  3.407441E-01
  3.394457E-01
  3.407422E-01
  3.381823E-01
  3.392915E-01
  3.376917E-01
  3.403178E-01
  3.398175E-01
  3.423245E-01
  3.403460E-01
  3.408094E-01
  3.373618E-01
  3.375572E-01
  3.349033E-01
  3.362373E-01
  3.345672E-01
  3.366648E-01
  3.357496E-01
  3.386339E-01
  3.381712E-01
  3.407660E-01
  3.391499E-01
  3.401842E-01
  3.373007E-01
  3.378498E-01
  3.353448E-01
  3.367767E-01
  3.351312E-01
  3.369095E-01
  3.348852E-01
  3.357420E-01
  3.328044E-01
  3.333202E-01
  3.309632E-01
  3.329080E-01
  3.325606E-01
  3.366707E-01
  3.379447E-01
  3.422871E-01
  3.416822E-01
  3.425811E-01
  3.387833E-01
  3.388517E-01
  3.374465E-01
  3.418172E-01
  3.440170E-01
  3.489704E-01
  3.480347E-01
  3.479548E-01
  3.428836E-01
  3.413660E-01
  3.375468E-01
  3.386543E-01
  3.377791E-01
  3.365249E-01
  3.403550E-01
  3.442628E-01
  3.448720E-01
  3.437425E-01
  3.402415E-01
  3.379684E-01
  3.363313E-01
  3.372648E-01
  3.382298E-01
  3.400318E-01
  3.401648E-01
  3.403464E-01
  3.391817E-01
  3.390859E-01
  3.386740E-01
  3.397740E-01
  3.402019E-01
  3.412239E-01
  3.406142E-01
  3.401367E-01
  3.382454E-01
  3.371264E-01
  3.352728E-01
  3.346699E-01
  3.336479E-01
  3.340716E-01
  3.340829E-01
  3.352240E-01
  3.353450E-01
  3.360309E-01
  3.355622E-01
  3.360667E-01
  3.360083E-01
  3.371401E-01
  3.372825E-01
  3.378085E-01
  3.367244E-01
  3.359586E-01
  3.339868E-01
  3.328739E-01
  3.310530E-01
  3.305601E-01
  3.299008E-01
  3.311291E-01
  3.325850E-01
  3.358662E-01
  3.385713E-01
  3.415321E-01
  3.419864E-01
  3.414590E-01
  3.388610E-01
  3.375014E-01
  3.370050E-01
  3.397118E-01
  3.430507E-01
  3.470231E-01
  3.478889E-01
  3.466456E-01
  3.421112E-01
  3.377515E-01
  3.334642E-01
  3.322556E-01
  3.328038E-01
  3.377614E-01
  3.421756E-01
  3.440356E-01
  3.454141E-01
  3.422247E-01
  3.391367E-01
  3.344916E-01
  3.334366E-01
  3.329650E-01
  3.360198E-01
  3.378263E-01
  3.406878E-01
  3.403425E-01
  3.405155E-01
  3.384323E-01
  3.386384E-01
  3.381371E-01
  3.403180E-01
  3.408061E-01
  3.422899E-01
  3.408015E-01
  3.402638E-01
  3.377824E-01
  3.374449E-01
  3.357777E-01
  3.361478E-01
  3.348809E-01
  3.356299E-01
  3.350707E-01
  3.367844E-01
  3.369051E-01
  3.384397E-01
  3.374095E-01
  3.374072E-01
  3.353622E-01
  3.354754E-01
  3.345726E-01
  3.360478E-01
  3.357509E-01
  3.365967E-01
  3.348115E-01
  3.343349E-01
  3.323650E-01
  3.330578E-01
  3.330631E-01
  3.356562E-01
  3.368071E-01
  3.395372E-01
  3.397489E-01
  3.406310E-01
  3.386465E-01
  3.380610E-01
  3.364333E-01
  3.382139E-01
  3.398708E-01
  3.439186E-01
  3.451591E-01
  3.460020E-01
  3.428306E-01
  3.403183E-01
  3.362234E-01
  3.350515E-01
  3.337070E-01
  3.358529E-01
  3.337349E-01
  3.397728E-01
  3.409162E-01
  3.438079E-01
  3.399003E-01
  3.385445E-01
  3.333844E-01
  3.338917E-01
  3.323626E-01
  3.362785E-01
  3.365059E-01
  3.401620E-01
  3.386180E-01
  3.402577E-01
  3.376082E-01
  3.395302E-01
  3.381915E-01
  3.415005E-01
  3.406620E-01
  3.431934E-01
  3.405423E-01
  3.410373E-01
  3.369357E-01
  3.369005E-01
  3.331897E-01
  3.341091E-01
  3.316397E-01
  3.337873E-01
  3.323263E-01
  3.351074E-01
  3.338313E-01
  3.364693E-01
  3.349133E-01
  3.373931E-01
  3.358696E-01
  3.384156E-01
  3.367061E-01
  3.386391E-01
  3.359412E-01
  3.368031E-01
  3.333931E-01
  3.343016E-01
  3.319293E-01
  3.345986E-01
  3.341015E-01
  3.380538E-01
  3.377403E-01
  3.408353E-01
  3.389246E-01
  3.401667E-01
  3.366360E-01
  3.370144E-01
  3.339268E-01
  3.361233E-01
  3.356899E-01
  3.401944E-01
  3.403715E-01
  3.432363E-01
  3.400193E-01
  3.392463E-01
  3.337547E-01
  3.328985E-01
  3.296692E-01
  3.326899E-01
  3.365291E-01
  3.411092E-01
  3.402431E-01
  3.427629E-01
  3.382143E-01
  3.372895E-01
  3.315609E-01
  3.322662E-01
  3.301945E-01
  3.347634E-01
  3.350794E-01
  3.397747E-01
  3.381548E-01
  3.402362E-01
  3.369023E-01
  3.391260E-01
  3.376055E-01
  3.420294E-01
  3.414832E-01
  3.448490E-01
  3.415736E-01
  3.420120E-01
  3.370473E-01
  3.374224E-01
  3.335801E-01
  3.353165E-01
  3.326335E-01
  3.353734E-01
  3.338403E-01
  3.378769E-01
  3.371987E-01
  3.409698E-01
  3.386309E-01
  3.401192E-01
  3.361818E-01
  3.376841E-01
  3.352673E-01
  3.386034E-01
  3.369841E-01
  3.395810E-01
  3.363683E-01
  3.378913E-01
  3.351234E-01
  3.383692E-01
  3.374175E-01
  3.413363E-01
  3.394258E-01
  3.414275E-01
  3.376580E-01
  3.385367E-01
  3.345582E-01
  3.359922E-01
  3.333258E-01
  3.365855E-01
  3.356725E-01
  3.397750E-01
  3.381949E-01
  3.404883E-01
  3.369474E-01
  3.381244E-01
  3.346201E-01
  3.365491E-01
  3.341372E-01
  3.373853E-01
  3.335768E-01
  3.379834E-01
  3.375402E-01
  3.405357E-01
  3.373246E-01
  3.377239E-01
  3.335264E-01
  3.348666E-01
  3.329065E-01
  3.365150E-01
  3.357778E-01
  3.391828E-01
  3.371383E-01
  3.391759E-01
  3.367062E-01
  3.396130E-01
  3.388082E-01
  3.431141E-01
  3.423723E-01
  3.450908E-01
  3.415456E-01
  3.413799E-01
  3.360066E-01
  3.355156E-01
  3.312939E-01
  3.327803E-01
  3.307513E-01
  3.340798E-01
  3.332460E-01
  3.371096E-01
  3.361883E-01
  3.395440E-01
  3.378673E-01
  3.405754E-01
  3.385923E-01
  3.412821E-01
  3.391974E-01
  3.413054E-01
  3.381044E-01
  3.390039E-01
  3.352384E-01
  3.367250E-01
  3.347073E-01
  3.383583E-01
  3.378605E-01
  3.416243E-01
  3.397273E-01
  3.413983E-01
  3.377188E-01
  3.384750E-01
  3.347435E-01
  3.359234E-01
  3.329391E-01
  3.351356E-01
  3.333808E-01
  3.367086E-01
  3.355097E-01
  3.385630E-01
  3.362898E-01
  3.378786E-01
  3.342948E-01
  3.352237E-01
  3.320569E-01
  3.345169E-01
  3.363494E-01
  3.383827E-01
  3.374997E-01
  3.396339E-01
  3.376335E-01
  3.380145E-01
  3.348265E-01
  3.354518E-01
  3.339491E-01
  3.367643E-01
  3.367346E-01
  3.395348E-01
  3.380897E-01
  3.391383E-01
  3.369231E-01
  3.388916E-01
  3.388937E-01
  3.429963E-01
  3.434286E-01
  3.455982E-01
  3.424302E-01
  3.411453E-01
  3.363426E-01
  3.356386E-01
  3.329756E-01
  3.347002E-01
  3.339128E-01
  3.367823E-01
  3.367063E-01
  3.401617E-01
  3.403245E-01
  3.432055E-01
  3.417241E-01
  3.424934E-01
  3.395529E-01
  3.403038E-01
  3.385785E-01
  3.406407E-01
  3.392040E-01
  3.403417E-01
  3.376571E-01
  3.384234E-01
  3.368013E-01
  3.394252E-01
  3.391550E-01
  3.416656E-01
  3.398506E-01
  3.404317E-01
  3.373940E-01
  3.378093E-01
  3.353571E-01
  3.366029E-01
  3.350418E-01
  3.371592E-01
  3.362136E-01
  3.383296E-01
  3.366722E-01
  3.378729E-01
  3.358289E-01
  3.374677E-01
  3.362343E-01
  3.382682E-01
  3.366834E-01
  3.380756E-01
  3.325887E-01
  3.346051E-01
  3.352609E-01
  3.379671E-01
  3.381348E-01
  3.395927E-01
  3.384960E-01
  3.393134E-01
  3.383462E-01
  3.396589E-01
  3.389265E-01
  3.398290E-01
  3.382205E-01
  3.385023E-01
  3.372758E-01
  3.390780E-01
  3.398567E-01
  3.430162E-01
  3.434935E-01
  3.445127E-01
  3.417553E-01
  3.398337E-01
  3.356759E-01
  3.342981E-01
  3.322896E-01
  3.337040E-01
  3.341040E-01
  3.368105E-01
  3.372225E-01
  3.391348E-01
  3.386105E-01
  3.399653E-01
  3.393973E-01
  3.410954E-01
  3.409419E-01
  3.426921E-01
  3.418181E-01
  3.420214E-01
  3.392695E-01
  3.381295E-01
  3.353225E-01
  3.355082E-01
  3.348467E-01
  3.370176E-01
  3.373570E-01
  3.393153E-01
  3.386227E-01
  3.394905E-01
  3.381677E-01
  3.388506E-01
  3.374551E-01
  3.379550E-01
  3.364129E-01
  3.370905E-01
  3.361391E-01
  3.375553E-01
  3.370818E-01
  3.384742E-01
  3.374796E-01
  3.380208E-01
  3.360509E-01
  3.357413E-01
  3.334075E-01
  3.335544E-01
  3.346263E-01
  3.351241E-01
  3.355087E-01
  3.377499E-01
  3.386557E-01
  3.399992E-01
  3.393080E-01
  3.394800E-01
  3.387077E-01
  3.396468E-01
  3.395972E-01
  3.403868E-01
  3.392229E-01
  3.387264E-01
  3.372410E-01
  3.379927E-01
  3.388896E-01
  3.417899E-01
  3.430704E-01
  3.439902E-01
  3.417676E-01
  3.395565E-01
  3.362576E-01
  3.353976E-01
  3.349811E-01
  3.370014E-01
  3.382439E-01
  3.403600E-01
  3.406478E-01
  3.416663E-01
  3.412466E-01
  3.418574E-01
  3.409689E-01
  3.409864E-01
  3.397319E-01
  3.399278E-01
  3.392184E-01
  3.397203E-01
  3.386208E-01
  3.382277E-01
  3.364831E-01
  3.363492E-01
  3.357893E-01
  3.370742E-01
  3.373256E-01
  3.384863E-01
  3.380532E-01
  3.386612E-01
  3.381364E-01
  3.388777E-01
  3.383212E-01
  3.388558E-01
  3.383032E-01
  3.393086E-01
  3.393902E-01
  3.405284E-01
  3.398924E-01
  3.398864E-01
  3.385159E-01
  3.386218E-01
  3.378158E-01
  3.381126E-01
  3.367379E-01
  3.361788E-01
  3.309407E-01
  3.324091E-01
  3.336796E-01
  3.367662E-01
  3.384480E-01
  3.407230E-01
  3.408181E-01
  3.415045E-01
  3.405957E-01
  3.409245E-01
  3.398929E-01
  3.398733E-01
  3.382419E-01
  3.378653E-01
  3.367404E-01
  3.378668E-01
  3.386800E-01
  3.411741E-01
  3.418869E-01
  3.426165E-01
  3.405584E-01
  3.387860E-01
  3.356957E-01
  3.348220E-01
  3.341871E-01
  3.362303E-01
  3.376615E-01
  3.400009E-01
  3.399229E-01
  3.399344E-01
  3.380591E-01
  3.377006E-01
  3.369038E-01
  3.383327E-01
  3.390146E-01
  3.407605E-01
  3.402734E-01
  3.398219E-01
  3.371661E-01
  3.356535E-01
  3.335269E-01
  3.337254E-01
  3.335805E-01
  3.351717E-01
  3.355115E-01
  3.369739E-01
  3.370937E-01
  3.385461E-01
  3.386884E-01
  3.397878E-01
  3.390217E-01
  3.390241E-01
  3.376670E-01
  3.380491E-01
  3.378921E-01
  3.395916E-01
  3.400795E-01
  3.413638E-01
  3.405010E-01
  3.399852E-01
  3.374216E-01
  3.357447E-01
  3.329066E-01
  3.320040E-01
  3.339242E-01
  3.345243E-01
  3.346824E-01
  3.371708E-01
  3.381007E-01
  3.398860E-01
  3.391464E-01
  3.393947E-01
  3.381024E-01
  3.387995E-01
  3.382240E-01
  3.390470E-01
  3.377445E-01
  3.375577E-01
  3.359517E-01
  3.367842E-01
  3.372605E-01
  3.401200E-01
  3.412114E-01
  3.426325E-01
  3.407974E-01
  3.393986E-01
  3.364382E-01
  3.361471E-01
  3.358566E-01
  3.383387E-01
  3.395642E-01
  3.417483E-01
  3.412861E-01
  3.415091E-01
  3.397599E-01
  3.395984E-01
  3.380160E-01
  3.381414E-01
  3.368566E-01
  3.373526E-01
  3.364573E-01
  3.371291E-01
  3.360379E-01
  3.363060E-01
  3.350304E-01
  3.356358E-01
  3.351363E-01
  3.365166E-01
  3.363712E-01
  3.376516E-01
  3.372541E-01
  3.384173E-01
  3.379576E-01
  3.388096E-01
  3.377103E-01
  3.380282E-01
  3.371365E-01
  3.385731E-01
  3.391142E-01
  3.413095E-01
  3.413275E-01
  3.420411E-01
  3.405272E-01
  3.403854E-01
  3.386807E-01
  3.384551E-01
  3.364025E-01
  3.357742E-01
  3.317581E-01
  3.334491E-01
  3.339914E-01
  3.367276E-01
  3.375133E-01
  3.396337E-01
  3.391360E-01
  3.398367E-01
  3.383217E-01
  3.386132E-01
  3.370942E-01
  3.374208E-01
  3.358628E-01
  3.363179E-01
  3.354195E-01
  3.371216E-01
  3.376692E-01
  3.403676E-01
  3.408566E-01
  3.422503E-01
  3.404828E-01
  3.394886E-01
  3.362188E-01
  3.353036E-01
  3.337719E-01
  3.354832E-01
  3.362102E-01
  3.386684E-01
  3.382648E-01
  3.385020E-01
  3.361879E-01
  3.359330E-01
  3.347154E-01
  3.363486E-01
  3.366519E-01
  3.385567E-01
  3.377144E-01
  3.377174E-01
  3.352823E-01
  3.348202E-01
  3.331884E-01
  3.342263E-01
  3.340001E-01
  3.358093E-01
  3.356754E-01
  3.372461E-01
  3.368743E-01
  3.382690E-01
  3.375589E-01
  3.382664E-01
  3.366555E-01
  3.367235E-01
  3.352466E-01
  3.363502E-01
  3.364439E-01
  3.389506E-01
  3.395800E-01
  3.414396E-01
  3.403736E-01
  3.400693E-01
  3.371174E-01
  3.358017E-01
  3.329961E-01
  3.328183E-01
  3.364297E-01
  3.369440E-01
  3.363129E-01
  3.375734E-01
  3.373895E-01
  3.383681E-01
  3.372713E-01
  3.373085E-01
  3.358574E-01
  3.362594E-01
  3.354922E-01
  3.363231E-01
  3.354960E-01
  3.360684E-01
  3.353570E-01
  3.367954E-01
  3.375391E-01
  3.403287E-01
  3.414161E-01
  3.430326E-01
  3.416503E-01
  3.405136E-01
  3.373506E-01
  3.361586E-01
  3.345724E-01
  3.356780E-01
  3.360023E-01
  3.378867E-01
  3.378118E-01
  3.387170E-01
  3.377724E-01
  3.382250E-01
  3.370928E-01
  3.373508E-01
  3.359974E-01
  3.362224E-01
  3.351921E-01
  3.359808E-01
  3.354448E-01
  3.364373E-01
  3.358831E-01
  3.368828E-01
  3.365053E-01
  3.377279E-01
  3.373401E-01
  3.381830E-01
  3.371684E-01
  3.374038E-01
  3.359835E-01
  3.360593E-01
  3.347879E-01
  3.354530E-01
  3.352735E-01
  3.372488E-01
  3.379666E-01
  3.398389E-01
  3.393605E-01
  3.395664E-01
  3.378578E-01
  3.378308E-01
  3.367524E-01
  3.375555E-01
  3.368862E-01
  3.375102E-01
  3.357621E-01
  3.368702E-01
  3.367642E-01
  3.374275E-01
  3.372726E-01
  3.380610E-01
  3.378014E-01
  3.380828E-01
  3.370864E-01
  3.367245E-01
  3.354217E-01
  3.351799E-01
  3.344518E-01
  3.352115E-01
  3.357552E-01
  3.377175E-01
  3.390007E-01
  3.410303E-01
  3.417104E-01
  3.425646E-01
  3.415314E-01
  3.402852E-01
  3.372674E-01
  3.349432E-01
  3.324078E-01
  3.320411E-01
  3.320629E-01
  3.336162E-01
  3.341150E-01
  3.348819E-01
  3.343190E-01
  3.347846E-01
  3.349726E-01
  3.366327E-01
  3.374733E-01
  3.386275E-01
  3.379579E-01
  3.374084E-01
  3.357333E-01
  3.352870E-01
  3.346099E-01
  3.354475E-01
  3.357462E-01
  3.369308E-01
  3.369393E-01
  3.374141E-01
  3.365799E-01
  3.363470E-01
  3.351436E-01
  3.349898E-01
  3.343143E-01
  3.349790E-01
  3.351301E-01
  3.363274E-01
  3.365473E-01
  3.373911E-01
  3.369827E-01
  3.370648E-01
  3.358691E-01
  3.353353E-01
  3.340239E-01
  3.341027E-01
  3.339863E-01
  3.352730E-01
  3.414548E-01
  3.408757E-01
  3.396797E-01
  3.383243E-01
  3.374270E-01
  3.367786E-01
  3.363936E-01
  3.359000E-01
  3.355069E-01
  3.350770E-01
  3.348884E-01
  3.347530E-01
  3.349312E-01
  3.353015E-01
  3.361728E-01
  3.373422E-01
  3.389040E-01
  3.403893E-01
  3.416746E-01
  3.421732E-01
  3.418062E-01
  3.402903E-01
  3.381296E-01
  3.357043E-01
  3.338871E-01
  3.328741E-01
  3.328936E-01
  3.334427E-01
  3.343908E-01
  3.353312E-01
  3.364332E-01
  3.374089E-01
  3.382411E-01
  3.384168E-01
  3.380468E-01
  3.371563E-01
  3.364290E-01
  3.360158E-01
  3.361850E-01
  3.365205E-01
  3.370316E-01
  3.374489E-01
  3.380057E-01
  3.383804E-01
  3.384961E-01
  3.378390E-01
  3.366018E-01
  3.349277E-01
  3.336170E-01
  3.329866E-01
  3.335057E-01
  3.348515E-01
  3.367797E-01
  3.383793E-01
  3.391775E-01
  3.385831E-01
  3.369800E-01
  3.348339E-01
  3.332686E-01
  3.328123E-01
  3.339420E-01
  3.361159E-01
  3.387440E-01
  3.406644E-01
  3.407434E-01
  3.403806E-01
  3.398464E-01
  3.378441E-01
  3.372319E-01
  3.362980E-01
  3.368987E-01
  3.365181E-01
  3.368104E-01
  3.356207E-01
  3.352088E-01
  3.339485E-01
  3.343156E-01
  3.344980E-01
  3.363997E-01
  3.374996E-01
  3.393106E-01
  3.395138E-01
  3.402836E-01
  3.397820E-01
  3.400503E-01
  3.387054E-01
  3.375448E-01
  3.347130E-01
  3.329621E-01
  3.310230E-01
  3.312601E-01
  3.313544E-01
  3.327344E-01
  3.329618E-01
  3.341667E-01
  3.346989E-01
  3.368101E-01
  3.381359E-01
  3.400285E-01
  3.397950E-01
  3.393862E-01
  3.372144E-01
  3.360873E-01
  3.345793E-01
  3.349891E-01
  3.351417E-01
  3.366851E-01
  3.370517E-01
  3.378278E-01
  3.367170E-01
  3.359070E-01
  3.338342E-01
  3.331958E-01
  3.324816E-01
  3.338687E-01
  3.349793E-01
  3.371498E-01
  3.376040E-01
  3.380376E-01
  3.365441E-01
  3.356633E-01
  3.338134E-01
  3.333323E-01
  3.323917E-01
  3.332783E-01
  3.341454E-01
  3.368624E-01
  3.386858E-01
  3.450673E-01
  3.428138E-01
  3.416272E-01
  3.380421E-01
  3.371514E-01
  3.348145E-01
  3.352357E-01
  3.338015E-01
  3.346663E-01
  3.334192E-01
  3.344335E-01
  3.334513E-01
  3.348987E-01
  3.344576E-01
  3.363703E-01
  3.360842E-01
  3.377812E-01
  3.370638E-01
  3.384140E-01
  3.375659E-01
  3.388239E-01
  3.375895E-01
  3.380503E-01
  3.359091E-01
  3.358773E-01
  3.339966E-01
  3.348142E-01
  3.339572E-01
  3.356517E-01
  3.355153E-01
  3.379005E-01
  3.382880E-01
  3.406025E-01
  3.399149E-01
  3.403529E-01
  3.378082E-01
  3.373443E-01
  3.352028E-01
  3.359634E-01
  3.351336E-01
  3.368348E-01
  3.365824E-01
  3.386005E-01
  3.382007E-01
  3.392636E-01
  3.370600E-01
  3.361268E-01
  3.328089E-01
  3.323594E-01
  3.311021E-01
  3.334611E-01
  3.346518E-01
  3.381776E-01
  3.387891E-01
  3.402803E-01
  3.382182E-01
  3.374719E-01
  3.344766E-01
  3.344139E-01
  3.335205E-01
  3.362918E-01
  3.380127E-01
  3.421858E-01
  3.433444E-01
  3.417600E-01
  3.399117E-01
  3.401990E-01
  3.368367E-01
  3.369086E-01
  3.344745E-01
  3.357737E-01
  3.341234E-01
  3.354814E-01
  3.334278E-01
  3.344430E-01
  3.325714E-01
  3.344103E-01
  3.336970E-01
  3.364036E-01
  3.356472E-01
  3.373379E-01
  3.352166E-01
  3.361676E-01
  3.344642E-01
  3.365540E-01
  3.356610E-01
  3.374663E-01
  3.353643E-01
  3.360346E-01
  3.337784E-01
  3.352870E-01
  3.341124E-01
  3.361709E-01
  3.349361E-01
  3.369414E-01
  3.362278E-01
  3.392050E-01
  3.390612E-01
  3.414256E-01
  3.394003E-01
  3.394300E-01
  3.357663E-01
  3.355482E-01
  3.330736E-01
  3.348641E-01
  3.344119E-01
  3.374886E-01
  3.370483E-01
  3.388269E-01
  3.362494E-01
  3.360090E-01
  3.325235E-01
  3.329021E-01
  3.313441E-01
  3.340789E-01
  3.342869E-01
  3.375144E-01
  3.368713E-01
  3.386380E-01
  3.368378E-01
  3.382689E-01
  3.367240E-01
  3.383759E-01
  3.367237E-01
  3.382723E-01
  3.370705E-01
  3.396609E-01
  3.393452E-01
  3.432647E-01
  3.402581E-01
  3.406204E-01
  3.368512E-01
  3.371465E-01
  3.338335E-01
  3.347457E-01
  3.320653E-01
  3.335950E-01
  3.315870E-01
  3.338373E-01
  3.325219E-01
  3.352922E-01
  3.341278E-01
  3.365580E-01
  3.345683E-01
  3.360176E-01
  3.333997E-01
  3.349733E-01
  3.332618E-01
  3.360519E-01
  3.352188E-01
  3.381644E-01
  3.368246E-01
  3.390958E-01
  3.373171E-01
  3.394471E-01
  3.376411E-01
  3.397848E-01
  3.381820E-01
  3.408265E-01
  3.397080E-01
  3.421892E-01
  3.398209E-01
  3.403401E-01
  3.363332E-01
  3.364673E-01
  3.335243E-01
  3.354437E-01
  3.341934E-01
  3.372809E-01
  3.366939E-01
  3.400131E-01
  3.389321E-01
  3.407781E-01
  3.374259E-01
  3.371110E-01
  3.328439E-01
  3.333093E-01
  3.311968E-01
  3.341827E-01
  3.340073E-01
  3.378687E-01
  3.374978E-01
  3.405583E-01
  3.392325E-01
  3.415310E-01
  3.397044E-01
  3.417348E-01
  3.398474E-01
  3.420744E-01
  3.406002E-01
  3.431740E-01
  3.415549E-01
  3.381562E-01
  3.368247E-01
  3.386052E-01
  3.363701E-01
  3.374163E-01
  3.350321E-01
  3.363308E-01
  3.342101E-01
  3.355233E-01
  3.332743E-01
  3.346209E-01
  3.328396E-01
  3.350562E-01
  3.341634E-01
  3.367347E-01
  3.352553E-01
  3.364939E-01
  3.337195E-01
  3.346058E-01
  3.327869E-01
  3.353456E-01
  3.348309E-01
  3.375837E-01
  3.362686E-01
  3.381089E-01
  3.364986E-01
  3.386381E-01
  3.372703E-01
  3.390903E-01
  3.370183E-01
  3.384406E-01
  3.367470E-01
  3.390430E-01
  3.379050E-01
  3.398143E-01
  3.373910E-01
  3.377932E-01
  3.344972E-01
  3.351227E-01
  3.331608E-01
  3.357461E-01
  3.356448E-01
  3.392528E-01
  3.387686E-01
  3.406679E-01
  3.378321E-01
  3.378262E-01
  3.343934E-01
  3.351579E-01