# vtk DataFile Version 2.0
title
ASCII
DATASET STRUCTURED_GRID
DIMENSIONS    8    8    1
POINTS     64  float
  0.000000E+00  0.000000E+00  0.000000E+00
  0.000000E+00  3.125000E+00  0.000000E+00
  0.000000E+00  6.250000E+00  0.000000E+00
  0.000000E+00  9.375000E+00  0.000000E+00
  0.000000E+00  1.250000E+01  0.000000E+00
  0.000000E+00  1.562500E+01  0.000000E+00
  0.000000E+00  1.875000E+01  0.000000E+00
  0.000000E+00  2.187500E+01  0.000000E+00
  3.125000E+00  0.000000E+00  0.000000E+00
  3.125000E+00  3.125000E+00  0.000000E+00
  3.125000E+00  6.250000E+00  0.000000E+00
  3.125000E+00  9.375000E+00  0.000000E+00
  3.125000E+00  1.250000E+01  0.000000E+00
  3.125000E+00  1.562500E+01  0.000000E+00
  3.125000E+00  1.875000E+01  0.000000E+00
  3.125000E+00  2.187500E+01  0.000000E+00
  6.250000E+00  0.000000E+00  0.000000E+00
  6.250000E+00  3.125000E+00  0.000000E+00
  6.250000E+00  6.250000E+00  0.000000E+00
  6.250000E+00  9.375000E+00  0.000000E+00
  6.250000E+00  1.250000E+01  0.000000E+00
  6.250000E+00  1.562500E+01  0.000000E+00
  6.250000E+00  1.875000E+01  0.000000E+00
  6.250000E+00  2.187500E+01  0.000000E+00
  9.375000E+00  0.000000E+00  0.000000E+00
  9.375000E+00  3.125000E+00  0.000000E+00
  9.375000E+00  6.250000E+00  0.000000E+00
  9.375000E+00  9.375000E+00  0.000000E+00
  9.375000E+00  1.250000E+01  0.000000E+00
  9.375000E+00  1.562500E+01  0.000000E+00
  9.375000E+00  1.875000E+01  0.000000E+00
  9.375000E+00  2.187500E+01  0.000000E+00
  1.250000E+01  0.000000E+00  0.000000E+00
  1.250000E+01  3.125000E+00  0.000000E+00
  1.250000E+01  6.250000E+00  0.000000E+00
  1.250000E+01  9.375000E+00  0.000000E+00
  1.250000E+01  1.250000E+01  0.000000E+00
  1.250000E+01  1.562500E+01  0.000000E+00
  1.250000E+01  1.875000E+01  0.000000E+00
  1.250000E+01  2.187500E+01  0.000000E+00
  1.562500E+01  0.000000E+00  0.000000E+00
  1.562500E+01  3.125000E+00  0.000000E+00
  1.562500E+01  6.250000E+00  0.000000E+00
  1.562500E+01  9.375000E+00  0.000000E+00
  1.562500E+01  1.250000E+01  0.000000E+00
  1.562500E+01  1.562500E+01  0.000000E+00
  1.562500E+01  1.875000E+01  0.000000E+00
  1.562500E+01  2.187500E+01  0.000000E+00
  1.875000E+01  0.000000E+00  0.000000E+00
  1.875000E+01  3.125000E+00  0.000000E+00
  1.875000E+01  6.250000E+00  0.000000E+00
  1.875000E+01  9.375000E+00  0.000000E+00
  1.875000E+01  1.250000E+01  0.000000E+00
  1.875000E+01  1.562500E+01  0.000000E+00
  1.875000E+01  1.875000E+01  0.000000E+00
  1.875000E+01  2.187500E+01  0.000000E+00
  2.187500E+01  0.000000E+00  0.000000E+00
  2.187500E+01  3.125000E+00  0.000000E+00
  2.187500E+01  6.250000E+00  0.000000E+00
  2.187500E+01  9.375000E+00  0.000000E+00
  2.187500E+01  1.250000E+01  0.000000E+00
  2.187500E+01  1.562500E+01  0.000000E+00
  2.187500E+01  1.875000E+01  0.000000E+00
  2.187500E+01  2.187500E+01  0.000000E+00
POINT_DATA     64
SCALARS CON  float  1
LOOKUP_TABLE default
  4.593715E-01
  4.660172E-01
  4.696112E-01
  4.838944E-01
  4.659723E-01
  4.742714E-01
  4.622764E-01
  4.696815E-01
  4.769971E-01
  4.797832E-01
  4.830455E-01
  4.541844E-01
  4.682549E-01
  4.779418E-01
  4.554784E-01
  4.748250E-01
  4.764567E-01
  4.598428E-01
  4.710608E-01
  4.697960E-01
  4.660463E-01
  4.645558E-01
  4.647836E-01
  4.729629E-01
  4.454295E-01
  4.703227E-01
  4.668622E-01
  4.512715E-01
  4.706081E-01
  4.707399E-01
  4.787791E-01
  4.751671E-01
  4.661642E-01
  4.617631E-01
  4.743381E-01
  4.674119E-01
  4.793912E-01
  4.572600E-01
  4.759181E-01
  4.536671E-01
  4.729321E-01
  4.604056E-01
  4.709930E-01
  4.673113E-01
  4.590255E-01
  4.754557E-01
  4.678389E-01
  4.587923E-01
  4.612457E-01
  4.676531E-01
  4.865127E-01
  4.429544E-01
  4.509032E-01
  4.600970E-01
  4.691975E-01
  4.699533E-01
  4.917080E-01
  4.868528E-01
  4.847014E-01
  4.758203E-01
  4.956148E-01
  4.680151E-01
  4.687882E-01
  4.855411E-01
